        
        
        6400 atoms 
           2 atom types 
         
    0.000000E+00      220.078400 xlo xhi 
    0.000000E+00      120.229400 ylo yhi 
   -5.000000E-01    5.000000E-01 zlo zhi 
        
Atoms   
        
  1         6.466940        3.005734    0.000000E+00
  1         6.466940        6.011469    0.000000E+00
  1         6.466940        9.017203    0.000000E+00
  1         6.466940       12.022940    0.000000E+00
  1         6.466940       15.028670    0.000000E+00
  1         6.466940       18.034410    0.000000E+00
  1         6.466940       21.040140    0.000000E+00
  1         6.466940       24.045880    0.000000E+00
  1         6.466940       27.051610    0.000000E+00
  1         6.466940       30.057340    0.000000E+00
  1         6.466940       33.063080    0.000000E+00
  1         6.466940       36.068810    0.000000E+00
  1         6.466940       39.074550    0.000000E+00
  1         6.466940       42.080280    0.000000E+00
  1         6.466940       45.086020    0.000000E+00
  1         6.466940       48.091750    0.000000E+00
  1         6.466940       51.097480    0.000000E+00
  1         6.466940       54.103220    0.000000E+00
  1         6.466940       57.108960    0.000000E+00
  1         6.466940       60.114690    0.000000E+00
  1         6.466940       63.120420    0.000000E+00
  1         6.466940       66.126160    0.000000E+00
  1         6.466940       69.131890    0.000000E+00
  1         6.466940       72.137630    0.000000E+00
  1         6.466940       75.143360    0.000000E+00
  1         6.466940       78.149090    0.000000E+00
  1         6.466940       81.154830    0.000000E+00
  1         6.466940       84.160570    0.000000E+00
  1         6.466940       87.166300    0.000000E+00
  1         6.466940       90.172040    0.000000E+00
  1         6.466940       93.177760    0.000000E+00
  1         6.466940       96.183500    0.000000E+00
  1         6.466940       99.189240    0.000000E+00
  1         6.466940      102.195000    0.000000E+00
  1         6.466940      105.200700    0.000000E+00
  1         6.466940      108.206400    0.000000E+00
  1         6.466940      111.212200    0.000000E+00
  1         6.466940      114.217900    0.000000E+00
  1         6.466940      117.223600    0.000000E+00
  1         6.466940      120.229400    0.000000E+00
  1        11.968900        3.005734    0.000000E+00
  1        11.968900        6.011469    0.000000E+00
  1        11.968900        9.017203    0.000000E+00
  1        11.968900       12.022940    0.000000E+00
  1        11.968900       15.028670    0.000000E+00
  1        11.968900       18.034410    0.000000E+00
  1        11.968900       21.040140    0.000000E+00
  1        11.968900       24.045880    0.000000E+00
  1        11.968900       27.051610    0.000000E+00
  1        11.968900       30.057340    0.000000E+00
  1        11.968900       33.063080    0.000000E+00
  1        11.968900       36.068810    0.000000E+00
  1        11.968900       39.074550    0.000000E+00
  1        11.968900       42.080280    0.000000E+00
  1        11.968900       45.086020    0.000000E+00
  1        11.968900       48.091750    0.000000E+00
  1        11.968900       51.097480    0.000000E+00
  1        11.968900       54.103220    0.000000E+00
  1        11.968900       57.108960    0.000000E+00
  1        11.968900       60.114690    0.000000E+00
  1        11.968900       63.120420    0.000000E+00
  1        11.968900       66.126160    0.000000E+00
  1        11.968900       69.131890    0.000000E+00
  1        11.968900       72.137630    0.000000E+00
  1        11.968900       75.143360    0.000000E+00
  1        11.968900       78.149090    0.000000E+00
  1        11.968900       81.154830    0.000000E+00
  1        11.968900       84.160570    0.000000E+00
  1        11.968900       87.166300    0.000000E+00
  1        11.968900       90.172040    0.000000E+00
  1        11.968900       93.177760    0.000000E+00
  1        11.968900       96.183500    0.000000E+00
  1        11.968900       99.189240    0.000000E+00
  1        11.968900      102.195000    0.000000E+00
  1        11.968900      105.200700    0.000000E+00
  1        11.968900      108.206400    0.000000E+00
  1        11.968900      111.212200    0.000000E+00
  1        11.968900      114.217900    0.000000E+00
  1        11.968900      117.223600    0.000000E+00
  1        11.968900      120.229400    0.000000E+00
  1        17.470860        3.005734    0.000000E+00
  1        17.470860        6.011469    0.000000E+00
  1        17.470860        9.017203    0.000000E+00
  1        17.470860       12.022940    0.000000E+00
  1        17.470860       15.028670    0.000000E+00
  1        17.470860       18.034410    0.000000E+00
  1        17.470860       21.040140    0.000000E+00
  1        17.470860       24.045880    0.000000E+00
  1        17.470860       27.051610    0.000000E+00
  1        17.470860       30.057340    0.000000E+00
  1        17.470860       33.063080    0.000000E+00
  1        17.470860       36.068810    0.000000E+00
  1        17.470860       39.074550    0.000000E+00
  1        17.470860       42.080280    0.000000E+00
  1        17.470860       45.086020    0.000000E+00
  1        17.470860       48.091750    0.000000E+00
  1        17.470860       51.097480    0.000000E+00
  1        17.470860       54.103220    0.000000E+00
  1        17.470860       57.108960    0.000000E+00
  1        17.470860       60.114690    0.000000E+00
  1        17.470860       63.120420    0.000000E+00
  1        17.470860       66.126160    0.000000E+00
  1        17.470860       69.131890    0.000000E+00
  1        17.470860       72.137630    0.000000E+00
  1        17.470860       75.143360    0.000000E+00
  1        17.470860       78.149090    0.000000E+00
  1        17.470860       81.154830    0.000000E+00
  1        17.470860       84.160570    0.000000E+00
  1        17.470860       87.166300    0.000000E+00
  1        17.470860       90.172040    0.000000E+00
  1        17.470860       93.177760    0.000000E+00
  1        17.470860       96.183500    0.000000E+00
  1        17.470860       99.189240    0.000000E+00
  1        17.470860      102.195000    0.000000E+00
  1        17.470860      105.200700    0.000000E+00
  1        17.470860      108.206400    0.000000E+00
  1        17.470860      111.212200    0.000000E+00
  1        17.470860      114.217900    0.000000E+00
  1        17.470860      117.223600    0.000000E+00
  1        17.470860      120.229400    0.000000E+00
  1        22.972820        3.005734    0.000000E+00
  1        22.972820        6.011469    0.000000E+00
  1        22.972820        9.017203    0.000000E+00
  1        22.972820       12.022940    0.000000E+00
  1        22.972820       15.028670    0.000000E+00
  1        22.972820       18.034410    0.000000E+00
  1        22.972820       21.040140    0.000000E+00
  1        22.972820       24.045880    0.000000E+00
  1        22.972820       27.051610    0.000000E+00
  1        22.972820       30.057340    0.000000E+00
  1        22.972820       33.063080    0.000000E+00
  1        22.972820       36.068810    0.000000E+00
  1        22.972820       39.074550    0.000000E+00
  1        22.972820       42.080280    0.000000E+00
  1        22.972820       45.086020    0.000000E+00
  1        22.972820       48.091750    0.000000E+00
  1        22.972820       51.097480    0.000000E+00
  1        22.972820       54.103220    0.000000E+00
  1        22.972820       57.108960    0.000000E+00
  1        22.972820       60.114690    0.000000E+00
  1        22.972820       63.120420    0.000000E+00
  1        22.972820       66.126160    0.000000E+00
  1        22.972820       69.131890    0.000000E+00
  1        22.972820       72.137630    0.000000E+00
  1        22.972820       75.143360    0.000000E+00
  1        22.972820       78.149090    0.000000E+00
  1        22.972820       81.154830    0.000000E+00
  1        22.972820       84.160570    0.000000E+00
  1        22.972820       87.166300    0.000000E+00
  1        22.972820       90.172040    0.000000E+00
  1        22.972820       93.177760    0.000000E+00
  1        22.972820       96.183500    0.000000E+00
  1        22.972820       99.189240    0.000000E+00
  1        22.972820      102.195000    0.000000E+00
  1        22.972820      105.200700    0.000000E+00
  1        22.972820      108.206400    0.000000E+00
  1        22.972820      111.212200    0.000000E+00
  1        22.972820      114.217900    0.000000E+00
  1        22.972820      117.223600    0.000000E+00
  1        22.972820      120.229400    0.000000E+00
  1        28.474780        3.005734    0.000000E+00
  1        28.474780        6.011469    0.000000E+00
  1        28.474780        9.017203    0.000000E+00
  1        28.474780       12.022940    0.000000E+00
  1        28.474780       15.028670    0.000000E+00
  1        28.474780       18.034410    0.000000E+00
  1        28.474780       21.040140    0.000000E+00
  1        28.474780       24.045880    0.000000E+00
  1        28.474780       27.051610    0.000000E+00
  1        28.474780       30.057340    0.000000E+00
  1        28.474780       33.063080    0.000000E+00
  1        28.474780       36.068810    0.000000E+00
  1        28.474780       39.074550    0.000000E+00
  1        28.474780       42.080280    0.000000E+00
  1        28.474780       45.086020    0.000000E+00
  1        28.474780       48.091750    0.000000E+00
  1        28.474780       51.097480    0.000000E+00
  1        28.474780       54.103220    0.000000E+00
  1        28.474780       57.108960    0.000000E+00
  1        28.474780       60.114690    0.000000E+00
  1        28.474780       63.120420    0.000000E+00
  1        28.474780       66.126160    0.000000E+00
  1        28.474780       69.131890    0.000000E+00
  1        28.474780       72.137630    0.000000E+00
  1        28.474780       75.143360    0.000000E+00
  1        28.474780       78.149090    0.000000E+00
  1        28.474780       81.154830    0.000000E+00
  1        28.474780       84.160570    0.000000E+00
  1        28.474780       87.166300    0.000000E+00
  1        28.474780       90.172040    0.000000E+00
  1        28.474780       93.177760    0.000000E+00
  1        28.474780       96.183500    0.000000E+00
  1        28.474780       99.189240    0.000000E+00
  1        28.474780      102.195000    0.000000E+00
  1        28.474780      105.200700    0.000000E+00
  1        28.474780      108.206400    0.000000E+00
  1        28.474780      111.212200    0.000000E+00
  1        28.474780      114.217900    0.000000E+00
  1        28.474780      117.223600    0.000000E+00
  1        28.474780      120.229400    0.000000E+00
  1        33.976740        3.005734    0.000000E+00
  1        33.976740        6.011469    0.000000E+00
  1        33.976740        9.017203    0.000000E+00
  1        33.976740       12.022940    0.000000E+00
  1        33.976740       15.028670    0.000000E+00
  1        33.976740       18.034410    0.000000E+00
  1        33.976740       21.040140    0.000000E+00
  1        33.976740       24.045880    0.000000E+00
  1        33.976740       27.051610    0.000000E+00
  1        33.976740       30.057340    0.000000E+00
  1        33.976740       33.063080    0.000000E+00
  1        33.976740       36.068810    0.000000E+00
  1        33.976740       39.074550    0.000000E+00
  1        33.976740       42.080280    0.000000E+00
  1        33.976740       45.086020    0.000000E+00
  1        33.976740       48.091750    0.000000E+00
  1        33.976740       51.097480    0.000000E+00
  1        33.976740       54.103220    0.000000E+00
  1        33.976740       57.108960    0.000000E+00
  1        33.976740       60.114690    0.000000E+00
  1        33.976740       63.120420    0.000000E+00
  1        33.976740       66.126160    0.000000E+00
  1        33.976740       69.131890    0.000000E+00
  1        33.976740       72.137630    0.000000E+00
  1        33.976740       75.143360    0.000000E+00
  1        33.976740       78.149090    0.000000E+00
  1        33.976740       81.154830    0.000000E+00
  1        33.976740       84.160570    0.000000E+00
  1        33.976740       87.166300    0.000000E+00
  1        33.976740       90.172040    0.000000E+00
  1        33.976740       93.177760    0.000000E+00
  1        33.976740       96.183500    0.000000E+00
  1        33.976740       99.189240    0.000000E+00
  1        33.976740      102.195000    0.000000E+00
  1        33.976740      105.200700    0.000000E+00
  1        33.976740      108.206400    0.000000E+00
  1        33.976740      111.212200    0.000000E+00
  1        33.976740      114.217900    0.000000E+00
  1        33.976740      117.223600    0.000000E+00
  1        33.976740      120.229400    0.000000E+00
  1        39.478700        3.005734    0.000000E+00
  1        39.478700        6.011469    0.000000E+00
  1        39.478700        9.017203    0.000000E+00
  1        39.478700       12.022940    0.000000E+00
  1        39.478700       15.028670    0.000000E+00
  1        39.478700       18.034410    0.000000E+00
  1        39.478700       21.040140    0.000000E+00
  1        39.478700       24.045880    0.000000E+00
  1        39.478700       27.051610    0.000000E+00
  1        39.478700       30.057340    0.000000E+00
  1        39.478700       33.063080    0.000000E+00
  1        39.478700       36.068810    0.000000E+00
  1        39.478700       39.074550    0.000000E+00
  1        39.478700       42.080280    0.000000E+00
  1        39.478700       45.086020    0.000000E+00
  1        39.478700       48.091750    0.000000E+00
  1        39.478700       51.097480    0.000000E+00
  1        39.478700       54.103220    0.000000E+00
  1        39.478700       57.108960    0.000000E+00
  1        39.478700       60.114690    0.000000E+00
  1        39.478700       63.120420    0.000000E+00
  1        39.478700       66.126160    0.000000E+00
  1        39.478700       69.131890    0.000000E+00
  1        39.478700       72.137630    0.000000E+00
  1        39.478700       75.143360    0.000000E+00
  1        39.478700       78.149090    0.000000E+00
  1        39.478700       81.154830    0.000000E+00
  1        39.478700       84.160570    0.000000E+00
  1        39.478700       87.166300    0.000000E+00
  1        39.478700       90.172040    0.000000E+00
  1        39.478700       93.177760    0.000000E+00
  1        39.478700       96.183500    0.000000E+00
  1        39.478700       99.189240    0.000000E+00
  1        39.478700      102.195000    0.000000E+00
  1        39.478700      105.200700    0.000000E+00
  1        39.478700      108.206400    0.000000E+00
  1        39.478700      111.212200    0.000000E+00
  1        39.478700      114.217900    0.000000E+00
  1        39.478700      117.223600    0.000000E+00
  1        39.478700      120.229400    0.000000E+00
  1        44.980660        3.005734    0.000000E+00
  1        44.980660        6.011469    0.000000E+00
  1        44.980660        9.017203    0.000000E+00
  1        44.980660       12.022940    0.000000E+00
  1        44.980660       15.028670    0.000000E+00
  1        44.980660       18.034410    0.000000E+00
  1        44.980660       21.040140    0.000000E+00
  1        44.980660       24.045880    0.000000E+00
  1        44.980660       27.051610    0.000000E+00
  1        44.980660       30.057340    0.000000E+00
  1        44.980660       33.063080    0.000000E+00
  1        44.980660       36.068810    0.000000E+00
  1        44.980660       39.074550    0.000000E+00
  1        44.980660       42.080280    0.000000E+00
  1        44.980660       45.086020    0.000000E+00
  1        44.980660       48.091750    0.000000E+00
  1        44.980660       51.097480    0.000000E+00
  1        44.980660       54.103220    0.000000E+00
  1        44.980660       57.108960    0.000000E+00
  1        44.980660       60.114690    0.000000E+00
  1        44.980660       63.120420    0.000000E+00
  1        44.980660       66.126160    0.000000E+00
  1        44.980660       69.131890    0.000000E+00
  1        44.980660       72.137630    0.000000E+00
  1        44.980660       75.143360    0.000000E+00
  1        44.980660       78.149090    0.000000E+00
  1        44.980660       81.154830    0.000000E+00
  1        44.980660       84.160570    0.000000E+00
  1        44.980660       87.166300    0.000000E+00
  1        44.980660       90.172040    0.000000E+00
  1        44.980660       93.177760    0.000000E+00
  1        44.980660       96.183500    0.000000E+00
  1        44.980660       99.189240    0.000000E+00
  1        44.980660      102.195000    0.000000E+00
  1        44.980660      105.200700    0.000000E+00
  1        44.980660      108.206400    0.000000E+00
  1        44.980660      111.212200    0.000000E+00
  1        44.980660      114.217900    0.000000E+00
  1        44.980660      117.223600    0.000000E+00
  1        44.980660      120.229400    0.000000E+00
  1        50.482620        3.005734    0.000000E+00
  1        50.482620        6.011469    0.000000E+00
  1        50.482620        9.017203    0.000000E+00
  1        50.482620       12.022940    0.000000E+00
  1        50.482620       15.028670    0.000000E+00
  1        50.482620       18.034410    0.000000E+00
  1        50.482620       21.040140    0.000000E+00
  1        50.482620       24.045880    0.000000E+00
  1        50.482620       27.051610    0.000000E+00
  1        50.482620       30.057340    0.000000E+00
  1        50.482620       33.063080    0.000000E+00
  1        50.482620       36.068810    0.000000E+00
  1        50.482620       39.074550    0.000000E+00
  1        50.482620       42.080280    0.000000E+00
  1        50.482620       45.086020    0.000000E+00
  1        50.482620       48.091750    0.000000E+00
  1        50.482620       51.097480    0.000000E+00
  1        50.482620       54.103220    0.000000E+00
  1        50.482620       57.108960    0.000000E+00
  1        50.482620       60.114690    0.000000E+00
  1        50.482620       63.120420    0.000000E+00
  1        50.482620       66.126160    0.000000E+00
  1        50.482620       69.131890    0.000000E+00
  1        50.482620       72.137630    0.000000E+00
  1        50.482620       75.143360    0.000000E+00
  1        50.482620       78.149090    0.000000E+00
  1        50.482620       81.154830    0.000000E+00
  1        50.482620       84.160570    0.000000E+00
  1        50.482620       87.166300    0.000000E+00
  1        50.482620       90.172040    0.000000E+00
  1        50.482620       93.177760    0.000000E+00
  1        50.482620       96.183500    0.000000E+00
  1        50.482620       99.189240    0.000000E+00
  1        50.482620      102.195000    0.000000E+00
  1        50.482620      105.200700    0.000000E+00
  1        50.482620      108.206400    0.000000E+00
  1        50.482620      111.212200    0.000000E+00
  1        50.482620      114.217900    0.000000E+00
  1        50.482620      117.223600    0.000000E+00
  1        50.482620      120.229400    0.000000E+00
  1        55.984580        3.005734    0.000000E+00
  1        55.984580        6.011469    0.000000E+00
  1        55.984580        9.017203    0.000000E+00
  1        55.984580       12.022940    0.000000E+00
  1        55.984580       15.028670    0.000000E+00
  1        55.984580       18.034410    0.000000E+00
  1        55.984580       21.040140    0.000000E+00
  1        55.984580       24.045880    0.000000E+00
  1        55.984580       27.051610    0.000000E+00
  1        55.984580       30.057340    0.000000E+00
  1        55.984580       33.063080    0.000000E+00
  1        55.984580       36.068810    0.000000E+00
  1        55.984580       39.074550    0.000000E+00
  1        55.984580       42.080280    0.000000E+00
  1        55.984580       45.086020    0.000000E+00
  1        55.984580       48.091750    0.000000E+00
  1        55.984580       51.097480    0.000000E+00
  1        55.984580       54.103220    0.000000E+00
  1        55.984580       57.108960    0.000000E+00
  1        55.984580       60.114690    0.000000E+00
  1        55.984580       63.120420    0.000000E+00
  1        55.984580       66.126160    0.000000E+00
  1        55.984580       69.131890    0.000000E+00
  1        55.984580       72.137630    0.000000E+00
  1        55.984580       75.143360    0.000000E+00
  1        55.984580       78.149090    0.000000E+00
  1        55.984580       81.154830    0.000000E+00
  1        55.984580       84.160570    0.000000E+00
  1        55.984580       87.166300    0.000000E+00
  1        55.984580       90.172040    0.000000E+00
  1        55.984580       93.177760    0.000000E+00
  1        55.984580       96.183500    0.000000E+00
  1        55.984580       99.189240    0.000000E+00
  1        55.984580      102.195000    0.000000E+00
  1        55.984580      105.200700    0.000000E+00
  1        55.984580      108.206400    0.000000E+00
  1        55.984580      111.212200    0.000000E+00
  1        55.984580      114.217900    0.000000E+00
  1        55.984580      117.223600    0.000000E+00
  1        55.984580      120.229400    0.000000E+00
  1        61.486540        3.005734    0.000000E+00
  1        61.486540        6.011469    0.000000E+00
  1        61.486540        9.017203    0.000000E+00
  1        61.486540       12.022940    0.000000E+00
  1        61.486540       15.028670    0.000000E+00
  1        61.486540       18.034410    0.000000E+00
  1        61.486540       21.040140    0.000000E+00
  1        61.486540       24.045880    0.000000E+00
  1        61.486540       27.051610    0.000000E+00
  1        61.486540       30.057340    0.000000E+00
  1        61.486540       33.063080    0.000000E+00
  1        61.486540       36.068810    0.000000E+00
  1        61.486540       39.074550    0.000000E+00
  1        61.486540       42.080280    0.000000E+00
  1        61.486540       45.086020    0.000000E+00
  1        61.486540       48.091750    0.000000E+00
  1        61.486540       51.097480    0.000000E+00
  1        61.486540       54.103220    0.000000E+00
  1        61.486540       57.108960    0.000000E+00
  1        61.486540       60.114690    0.000000E+00
  1        61.486540       63.120420    0.000000E+00
  1        61.486540       66.126160    0.000000E+00
  1        61.486540       69.131890    0.000000E+00
  1        61.486540       72.137630    0.000000E+00
  1        61.486540       75.143360    0.000000E+00
  1        61.486540       78.149090    0.000000E+00
  1        61.486540       81.154830    0.000000E+00
  1        61.486540       84.160570    0.000000E+00
  1        61.486540       87.166300    0.000000E+00
  1        61.486540       90.172040    0.000000E+00
  1        61.486540       93.177760    0.000000E+00
  1        61.486540       96.183500    0.000000E+00
  1        61.486540       99.189240    0.000000E+00
  1        61.486540      102.195000    0.000000E+00
  1        61.486540      105.200700    0.000000E+00
  1        61.486540      108.206400    0.000000E+00
  1        61.486540      111.212200    0.000000E+00
  1        61.486540      114.217900    0.000000E+00
  1        61.486540      117.223600    0.000000E+00
  1        61.486540      120.229400    0.000000E+00
  1        66.988490        3.005734    0.000000E+00
  1        66.988490        6.011469    0.000000E+00
  1        66.988490        9.017203    0.000000E+00
  1        66.988490       12.022940    0.000000E+00
  1        66.988490       15.028670    0.000000E+00
  1        66.988490       18.034410    0.000000E+00
  1        66.988490       21.040140    0.000000E+00
  1        66.988490       24.045880    0.000000E+00
  1        66.988490       27.051610    0.000000E+00
  1        66.988490       30.057340    0.000000E+00
  1        66.988490       33.063080    0.000000E+00
  1        66.988490       36.068810    0.000000E+00
  1        66.988490       39.074550    0.000000E+00
  1        66.988490       42.080280    0.000000E+00
  1        66.988490       45.086020    0.000000E+00
  1        66.988490       48.091750    0.000000E+00
  1        66.988490       51.097480    0.000000E+00
  1        66.988490       54.103220    0.000000E+00
  1        66.988490       57.108960    0.000000E+00
  1        66.988490       60.114690    0.000000E+00
  1        66.988490       63.120420    0.000000E+00
  1        66.988490       66.126160    0.000000E+00
  1        66.988490       69.131890    0.000000E+00
  1        66.988490       72.137630    0.000000E+00
  1        66.988490       75.143360    0.000000E+00
  1        66.988490       78.149090    0.000000E+00
  1        66.988490       81.154830    0.000000E+00
  1        66.988490       84.160570    0.000000E+00
  1        66.988490       87.166300    0.000000E+00
  1        66.988490       90.172040    0.000000E+00
  1        66.988490       93.177760    0.000000E+00
  1        66.988490       96.183500    0.000000E+00
  1        66.988490       99.189240    0.000000E+00
  1        66.988490      102.195000    0.000000E+00
  1        66.988490      105.200700    0.000000E+00
  1        66.988490      108.206400    0.000000E+00
  1        66.988490      111.212200    0.000000E+00
  1        66.988490      114.217900    0.000000E+00
  1        66.988490      117.223600    0.000000E+00
  1        66.988490      120.229400    0.000000E+00
  1        72.490460        3.005734    0.000000E+00
  1        72.490460        6.011469    0.000000E+00
  1        72.490460        9.017203    0.000000E+00
  1        72.490460       12.022940    0.000000E+00
  1        72.490460       15.028670    0.000000E+00
  1        72.490460       18.034410    0.000000E+00
  1        72.490460       21.040140    0.000000E+00
  1        72.490460       24.045880    0.000000E+00
  1        72.490460       27.051610    0.000000E+00
  1        72.490460       30.057340    0.000000E+00
  1        72.490460       33.063080    0.000000E+00
  1        72.490460       36.068810    0.000000E+00
  1        72.490460       39.074550    0.000000E+00
  1        72.490460       42.080280    0.000000E+00
  1        72.490460       45.086020    0.000000E+00
  1        72.490460       48.091750    0.000000E+00
  1        72.490460       51.097480    0.000000E+00
  1        72.490460       54.103220    0.000000E+00
  1        72.490460       57.108960    0.000000E+00
  1        72.490460       60.114690    0.000000E+00
  1        72.490460       63.120420    0.000000E+00
  1        72.490460       66.126160    0.000000E+00
  1        72.490460       69.131890    0.000000E+00
  1        72.490460       72.137630    0.000000E+00
  1        72.490460       75.143360    0.000000E+00
  1        72.490460       78.149090    0.000000E+00
  1        72.490460       81.154830    0.000000E+00
  1        72.490460       84.160570    0.000000E+00
  1        72.490460       87.166300    0.000000E+00
  1        72.490460       90.172040    0.000000E+00
  1        72.490460       93.177760    0.000000E+00
  1        72.490460       96.183500    0.000000E+00
  1        72.490460       99.189240    0.000000E+00
  1        72.490460      102.195000    0.000000E+00
  1        72.490460      105.200700    0.000000E+00
  1        72.490460      108.206400    0.000000E+00
  1        72.490460      111.212200    0.000000E+00
  1        72.490460      114.217900    0.000000E+00
  1        72.490460      117.223600    0.000000E+00
  1        72.490460      120.229400    0.000000E+00
  1        77.992420        3.005734    0.000000E+00
  1        77.992420        6.011469    0.000000E+00
  1        77.992420        9.017203    0.000000E+00
  1        77.992420       12.022940    0.000000E+00
  1        77.992420       15.028670    0.000000E+00
  1        77.992420       18.034410    0.000000E+00
  1        77.992420       21.040140    0.000000E+00
  1        77.992420       24.045880    0.000000E+00
  1        77.992420       27.051610    0.000000E+00
  1        77.992420       30.057340    0.000000E+00
  1        77.992420       33.063080    0.000000E+00
  1        77.992420       36.068810    0.000000E+00
  1        77.992420       39.074550    0.000000E+00
  1        77.992420       42.080280    0.000000E+00
  1        77.992420       45.086020    0.000000E+00
  1        77.992420       48.091750    0.000000E+00
  1        77.992420       51.097480    0.000000E+00
  1        77.992420       54.103220    0.000000E+00
  1        77.992420       57.108960    0.000000E+00
  1        77.992420       60.114690    0.000000E+00
  1        77.992420       63.120420    0.000000E+00
  1        77.992420       66.126160    0.000000E+00
  1        77.992420       69.131890    0.000000E+00
  1        77.992420       72.137630    0.000000E+00
  1        77.992420       75.143360    0.000000E+00
  1        77.992420       78.149090    0.000000E+00
  1        77.992420       81.154830    0.000000E+00
  1        77.992420       84.160570    0.000000E+00
  1        77.992420       87.166300    0.000000E+00
  1        77.992420       90.172040    0.000000E+00
  1        77.992420       93.177760    0.000000E+00
  1        77.992420       96.183500    0.000000E+00
  1        77.992420       99.189240    0.000000E+00
  1        77.992420      102.195000    0.000000E+00
  1        77.992420      105.200700    0.000000E+00
  1        77.992420      108.206400    0.000000E+00
  1        77.992420      111.212200    0.000000E+00
  1        77.992420      114.217900    0.000000E+00
  1        77.992420      117.223600    0.000000E+00
  1        77.992420      120.229400    0.000000E+00
  1        83.494380        3.005734    0.000000E+00