        
        
         400 atoms 
           2 atom types 
         
    0.000000E+00       29.956370 xlo xhi 
    0.000000E+00       54.834760 ylo yhi 
   -5.000000E-01    5.000000E-01 zlo zhi 
        
Atoms   
        
  1         2.995637        5.483476    0.000000E+00
  1         2.995637       10.966950    0.000000E+00
  1         2.995637       16.450430    0.000000E+00
  1         2.995637       21.933900    0.000000E+00
  1         2.995637       27.417380    0.000000E+00
  1         2.995637       32.900860    0.000000E+00
  1         2.995637       38.384330    0.000000E+00
  1         2.995637       43.867810    0.000000E+00
  1         2.995637       49.351280    0.000000E+00
  1         2.995637       54.834760    0.000000E+00
  1         5.991273        5.483476    0.000000E+00
  1         5.991273       10.966950    0.000000E+00
  1         5.991273       16.450430    0.000000E+00
  1         5.991273       21.933900    0.000000E+00
  1         5.991273       27.417380    0.000000E+00
  1         5.991273       32.900860    0.000000E+00
  1         5.991273       38.384330    0.000000E+00
  1         5.991273       43.867810    0.000000E+00
  1         5.991273       49.351280    0.000000E+00
  1         5.991273       54.834760    0.000000E+00
  1         8.986910        5.483476    0.000000E+00
  1         8.986910       10.966950    0.000000E+00
  1         8.986910       16.450430    0.000000E+00
  1         8.986910       21.933900    0.000000E+00
  1         8.986910       27.417380    0.000000E+00
  1         8.986910       32.900860    0.000000E+00
  1         8.986910       38.384330    0.000000E+00
  1         8.986910       43.867810    0.000000E+00
  1         8.986910       49.351280    0.000000E+00
  1         8.986910       54.834760    0.000000E+00
  1        11.982550        5.483476    0.000000E+00
  1        11.982550       10.966950    0.000000E+00
  1        11.982550       16.450430    0.000000E+00
  1        11.982550       21.933900    0.000000E+00
  1        11.982550       27.417380    0.000000E+00
  1        11.982550       32.900860    0.000000E+00
  1        11.982550       38.384330    0.000000E+00
  1        11.982550       43.867810    0.000000E+00
  1        11.982550       49.351280    0.000000E+00
  1        11.982550       54.834760    0.000000E+00
  1        14.978180        5.483476    0.000000E+00
  1        14.978180       10.966950    0.000000E+00
  1        14.978180       16.450430    0.000000E+00
  1        14.978180       21.933900    0.000000E+00
  1        14.978180       27.417380    0.000000E+00
  1        14.978180       32.900860    0.000000E+00
  1        14.978180       38.384330    0.000000E+00
  1        14.978180       43.867810    0.000000E+00
  1        14.978180       49.351280    0.000000E+00
  1        14.978180       54.834760    0.000000E+00
  1        17.973820        5.483476    0.000000E+00
  1        17.973820       10.966950    0.000000E+00
  1        17.973820       16.450430    0.000000E+00
  1        17.973820       21.933900    0.000000E+00
  1        17.973820       27.417380    0.000000E+00
  1        17.973820       32.900860    0.000000E+00
  1        17.973820       38.384330    0.000000E+00
  1        17.973820       43.867810    0.000000E+00
  1        17.973820       49.351280    0.000000E+00
  1        17.973820       54.834760    0.000000E+00
  1        20.969460        5.483476    0.000000E+00
  1        20.969460       10.966950    0.000000E+00
  1        20.969460       16.450430    0.000000E+00
  1        20.969460       21.933900    0.000000E+00
  1        20.969460       27.417380    0.000000E+00
  1        20.969460       32.900860    0.000000E+00
  1        20.969460       38.384330    0.000000E+00
  1        20.969460       43.867810    0.000000E+00
  1        20.969460       49.351280    0.000000E+00
  1        20.969460       54.834760    0.000000E+00
  1        23.965090        5.483476    0.000000E+00
  1        23.965090       10.966950    0.000000E+00
  1        23.965090       16.450430    0.000000E+00
  1        23.965090       21.933900    0.000000E+00
  1        23.965090       27.417380    0.000000E+00
  1        23.965090       32.900860    0.000000E+00
  1        23.965090       38.384330    0.000000E+00
  1        23.965090       43.867810    0.000000E+00
  1        23.965090       49.351280    0.000000E+00
  1        23.965090       54.834760    0.000000E+00
  1        26.960730        5.483476    0.000000E+00
  1        26.960730       10.966950    0.000000E+00
  1        26.960730       16.450430    0.000000E+00
  1        26.960730       21.933900    0.000000E+00
  1        26.960730       27.417380    0.000000E+00
  1        26.960730       32.900860    0.000000E+00
  1        26.960730       38.384330    0.000000E+00
  1        26.960730       43.867810    0.000000E+00
  1        26.960730       49.351280    0.000000E+00
  1        26.960730       54.834760    0.000000E+00
  1        29.956370        5.483476    0.000000E+00
  1        29.956370       10.966950    0.000000E+00
  1        29.956370       16.450430    0.000000E+00
  1        29.956370       21.933900    0.000000E+00
  1        29.956370       27.417380    0.000000E+00
  1        29.956370       32.900860    0.000000E+00
  1        29.956370       38.384330    0.000000E+00
  1        29.956370       43.867810    0.000000E+00
  1        29.956370       49.351280    0.000000E+00
  1        29.956370       54.834760    0.000000E+00
  1         4.493455        8.225214    0.000000E+00
  1         4.493455       13.708690    0.000000E+00
  1         4.493455       19.192170    0.000000E+00
  1         4.493455       24.675640    0.000000E+00
  1         4.493455       30.159120    0.000000E+00
  1         4.493455       35.642590    0.000000E+00
  1         4.493455       41.126070    0.000000E+00
  1         4.493455       46.609550    0.000000E+00
  1         4.493455       52.093030    0.000000E+00
  1         4.493455       57.576500    0.000000E+00
  1         7.489092        8.225214    0.000000E+00
  1         7.489092       13.708690    0.000000E+00
  1         7.489092       19.192170    0.000000E+00
  1         7.489092       24.675640    0.000000E+00
  1         7.489092       30.159120    0.000000E+00
  1         7.489092       35.642590    0.000000E+00
  1         7.489092       41.126070    0.000000E+00
  1         7.489092       46.609550    0.000000E+00
  1         7.489092       52.093030    0.000000E+00
  1         7.489092       57.576500    0.000000E+00
  1        10.484730        8.225214    0.000000E+00
  1        10.484730       13.708690    0.000000E+00
  1        10.484730       19.192170    0.000000E+00
  1        10.484730       24.675640    0.000000E+00
  1        10.484730       30.159120    0.000000E+00
  1        10.484730       35.642590    0.000000E+00
  1        10.484730       41.126070    0.000000E+00
  1        10.484730       46.609550    0.000000E+00
  1        10.484730       52.093030    0.000000E+00
  1        10.484730       57.576500    0.000000E+00
  1        13.480360        8.225214    0.000000E+00
  1        13.480360       13.708690    0.000000E+00
  1        13.480360       19.192170    0.000000E+00
  1        13.480360       24.675640    0.000000E+00
  1        13.480360       30.159120    0.000000E+00
  1        13.480360       35.642590    0.000000E+00
  1        13.480360       41.126070    0.000000E+00
  1        13.480360       46.609550    0.000000E+00
  1        13.480360       52.093030    0.000000E+00
  1        13.480360       57.576500    0.000000E+00
  1        16.476000        8.225214    0.000000E+00
  1        16.476000       13.708690    0.000000E+00
  1        16.476000       19.192170    0.000000E+00
  1        16.476000       24.675640    0.000000E+00
  1        16.476000       30.159120    0.000000E+00
  1        16.476000       35.642590    0.000000E+00
  1        16.476000       41.126070    0.000000E+00
  1        16.476000       46.609550    0.000000E+00
  1        16.476000       52.093030    0.000000E+00
  1        16.476000       57.576500    0.000000E+00
  1        19.471640        8.225214    0.000000E+00
  1        19.471640       13.708690    0.000000E+00
  1        19.471640       19.192170    0.000000E+00
  1        19.471640       24.675640    0.000000E+00
  1        19.471640       30.159120    0.000000E+00
  1        19.471640       35.642590    0.000000E+00
  1        19.471640       41.126070    0.000000E+00
  1        19.471640       46.609550    0.000000E+00
  1        19.471640       52.093030    0.000000E+00
  1        19.471640       57.576500    0.000000E+00
  1        22.467280        8.225214    0.000000E+00
  1        22.467280       13.708690    0.000000E+00
  1        22.467280       19.192170    0.000000E+00
  1        22.467280       24.675640    0.000000E+00
  1        22.467280       30.159120    0.000000E+00
  1        22.467280       35.642590    0.000000E+00
  1        22.467280       41.126070    0.000000E+00
  1        22.467280       46.609550    0.000000E+00
  1        22.467280       52.093030    0.000000E+00
  1        22.467280       57.576500    0.000000E+00
  1        25.462910        8.225214    0.000000E+00
  1        25.462910       13.708690    0.000000E+00
  1        25.462910       19.192170    0.000000E+00
  1        25.462910       24.675640    0.000000E+00
  1        25.462910       30.159120    0.000000E+00
  1        25.462910       35.642590    0.000000E+00
  1        25.462910       41.126070    0.000000E+00
  1        25.462910       46.609550    0.000000E+00
  1        25.462910       52.093030    0.000000E+00
  1        25.462910       57.576500    0.000000E+00
  1        28.458550        8.225214    0.000000E+00
  1        28.458550       13.708690    0.000000E+00
  1        28.458550       19.192170    0.000000E+00
  1        28.458550       24.675640    0.000000E+00
  1        28.458550       30.159120    0.000000E+00
  1        28.458550       35.642590    0.000000E+00
  1        28.458550       41.126070    0.000000E+00
  1        28.458550       46.609550    0.000000E+00
  1        28.458550       52.093030    0.000000E+00
  1        28.458550       57.576500    0.000000E+00
  1        31.454190        8.225214    0.000000E+00
  1        31.454190       13.708690    0.000000E+00
  1        31.454190       19.192170    0.000000E+00
  1        31.454190       24.675640    0.000000E+00
  1        31.454190       30.159120    0.000000E+00
  1        31.454190       35.642590    0.000000E+00
  1        31.454190       41.126070    0.000000E+00
  1        31.454190       46.609550    0.000000E+00
  1        31.454190       52.093030    0.000000E+00
  1        31.454190       57.576500    0.000000E+00
  2         2.995637        7.263476    0.000000E+00
  2         2.995637       12.746950    0.000000E+00
  2         2.995637       18.230430    0.000000E+00
  2         2.995637       23.713910    0.000000E+00
  2         2.995637       29.197380    0.000000E+00
  2         2.995637       34.680860    0.000000E+00
  2         2.995637       40.164330    0.000000E+00
  2         2.995637       45.647810    0.000000E+00
  2         2.995637       51.131290    0.000000E+00
  2         2.995637       56.614760    0.000000E+00
  2         5.991273        7.263476    0.000000E+00
  2         5.991273       12.746950    0.000000E+00
  2         5.991273       18.230430    0.000000E+00
  2         5.991273       23.713910    0.000000E+00
  2         5.991273       29.197380    0.000000E+00
  2         5.991273       34.680860    0.000000E+00
  2         5.991273       40.164330    0.000000E+00
  2         5.991273       45.647810    0.000000E+00
  2         5.991273       51.131290    0.000000E+00
  2         5.991273       56.614760    0.000000E+00
  2         8.986910        7.263476    0.000000E+00
  2         8.986910       12.746950    0.000000E+00
  2         8.986910       18.230430    0.000000E+00
  2         8.986910       23.713910    0.000000E+00
  2         8.986910       29.197380    0.000000E+00
  2         8.986910       34.680860    0.000000E+00
  2         8.986910       40.164330    0.000000E+00
  2         8.986910       45.647810    0.000000E+00
  2         8.986910       51.131290    0.000000E+00
  2         8.986910       56.614760    0.000000E+00
  2        11.982550        7.263476    0.000000E+00
  2        11.982550       12.746950    0.000000E+00
  2        11.982550       18.230430    0.000000E+00
  2        11.982550       23.713910    0.000000E+00
  2        11.982550       29.197380    0.000000E+00
  2        11.982550       34.680860    0.000000E+00
  2        11.982550       40.164330    0.000000E+00
  2        11.982550       45.647810    0.000000E+00
  2        11.982550       51.131290    0.000000E+00
  2        11.982550       56.614760    0.000000E+00
  2        14.978180        7.263476    0.000000E+00
  2        14.978180       12.746950    0.000000E+00
  2        14.978180       18.230430    0.000000E+00
  2        14.978180       23.713910    0.000000E+00
  2        14.978180       29.197380    0.000000E+00
  2        14.978180       34.680860    0.000000E+00
  2        14.978180       40.164330    0.000000E+00
  2        14.978180       45.647810    0.000000E+00
  2        14.978180       51.131290    0.000000E+00
  2        14.978180       56.614760    0.000000E+00
  2        17.973820        7.263476    0.000000E+00
  2        17.973820       12.746950    0.000000E+00
  2        17.973820       18.230430    0.000000E+00
  2        17.973820       23.713910    0.000000E+00
  2        17.973820       29.197380    0.000000E+00
  2        17.973820       34.680860    0.000000E+00
  2        17.973820       40.164330    0.000000E+00
  2        17.973820       45.647810    0.000000E+00
  2        17.973820       51.131290    0.000000E+00
  2        17.973820       56.614760    0.000000E+00
  2        20.969460        7.263476    0.000000E+00
  2        20.969460       12.746950    0.000000E+00
  2        20.969460       18.230430    0.000000E+00
  2        20.969460       23.713910    0.000000E+00
  2        20.969460       29.197380    0.000000E+00
  2        20.969460       34.680860    0.000000E+00
  2        20.969460       40.164330    0.000000E+00
  2        20.969460       45.647810    0.000000E+00
  2        20.969460       51.131290    0.000000E+00
  2        20.969460       56.614760    0.000000E+00
  2        23.965090        7.263476    0.000000E+00
  2        23.965090       12.746950    0.000000E+00
  2        23.965090       18.230430    0.000000E+00
  2        23.965090       23.713910    0.000000E+00
  2        23.965090       29.197380    0.000000E+00
  2        23.965090       34.680860    0.000000E+00
  2        23.965090       40.164330    0.000000E+00
  2        23.965090       45.647810    0.000000E+00
  2        23.965090       51.131290    0.000000E+00
  2        23.965090       56.614760    0.000000E+00
  2        26.960730        7.263476    0.000000E+00
  2        26.960730       12.746950    0.000000E+00
  2        26.960730       18.230430    0.000000E+00
  2        26.960730       23.713910    0.000000E+00
  2        26.960730       29.197380    0.000000E+00
  2        26.960730       34.680860    0.000000E+00
  2        26.960730       40.164330    0.000000E+00
  2        26.960730       45.647810    0.000000E+00
  2        26.960730       51.131290    0.000000E+00
  2        26.960730       56.614760    0.000000E+00
  2        29.956370        7.263476    0.000000E+00
  2        29.956370       12.746950    0.000000E+00
  2        29.956370       18.230430    0.000000E+00
  2        29.956370       23.713910    0.000000E+00
  2        29.956370       29.197380    0.000000E+00
  2        29.956370       34.680860    0.000000E+00
  2        29.956370       40.164330    0.000000E+00
  2        29.956370       45.647810    0.000000E+00
  2        29.956370       51.131290    0.000000E+00
  2        29.956370       56.614760    0.000000E+00
  2         4.493455       10.005210    0.000000E+00
  2         4.493455       15.488690    0.000000E+00
  2         4.493455       20.972170    0.000000E+00
  2         4.493455       26.455640    0.000000E+00
  2         4.493455       31.939120    0.000000E+00
  2         4.493455       37.422600    0.000000E+00
  2         4.493455       42.906070    0.000000E+00
  2         4.493455       48.389550    0.000000E+00
  2         4.493455       53.873020    0.000000E+00
  2         4.493455       59.356500    0.000000E+00
  2         7.489092       10.005210    0.000000E+00
  2         7.489092       15.488690    0.000000E+00
  2         7.489092       20.972170    0.000000E+00
  2         7.489092       26.455640    0.000000E+00
  2         7.489092       31.939120    0.000000E+00
  2         7.489092       37.422600    0.000000E+00
  2         7.489092       42.906070    0.000000E+00
  2         7.489092       48.389550    0.000000E+00
  2         7.489092       53.873020    0.000000E+00
  2         7.489092       59.356500    0.000000E+00
  2        10.484730       10.005210    0.000000E+00
  2        10.484730       15.488690    0.000000E+00
  2        10.484730       20.972170    0.000000E+00
  2        10.484730       26.455640    0.000000E+00
  2        10.484730       31.939120    0.000000E+00
  2        10.484730       37.422600    0.000000E+00
  2        10.484730       42.906070    0.000000E+00
  2        10.484730       48.389550    0.000000E+00
  2        10.484730       53.873020    0.000000E+00
  2        10.484730       59.356500    0.000000E+00
  2        13.480360       10.005210    0.000000E+00
  2        13.480360       15.488690    0.000000E+00
  2        13.480360       20.972170    0.000000E+00
  2        13.480360       26.455640    0.000000E+00
  2        13.480360       31.939120    0.000000E+00
  2        13.480360       37.422600    0.000000E+00
  2        13.480360       42.906070    0.000000E+00
  2        13.480360       48.389550    0.000000E+00
  2        13.480360       53.873020    0.000000E+00
  2        13.480360       59.356500    0.000000E+00
  2        16.476000       10.005210    0.000000E+00
  2        16.476000       15.488690    0.000000E+00
  2        16.476000       20.972170    0.000000E+00
  2        16.476000       26.455640    0.000000E+00
  2        16.476000       31.939120    0.000000E+00
  2        16.476000       37.422600    0.000000E+00
  2        16.476000       42.906070    0.000000E+00
  2        16.476000       48.389550    0.000000E+00
  2        16.476000       53.873020    0.000000E+00
  2        16.476000       59.356500    0.000000E+00
  2        19.471640       10.005210    0.000000E+00
  2        19.471640       15.488690    0.000000E+00
  2        19.471640       20.972170    0.000000E+00
  2        19.471640       26.455640    0.000000E+00
  2        19.471640       31.939120    0.000000E+00
  2        19.471640       37.422600    0.000000E+00
  2        19.471640       42.906070    0.000000E+00
  2        19.471640       48.389550    0.000000E+00
  2        19.471640       53.873020    0.000000E+00
  2        19.471640       59.356500    0.000000E+00
  2        22.467280       10.005210    0.000000E+00
  2        22.467280       15.488690    0.000000E+00
  2        22.467280       20.972170    0.000000E+00
  2        22.467280       26.455640    0.000000E+00
  2        22.467280       31.939120    0.000000E+00
  2        22.467280       37.422600    0.000000E+00
  2        22.467280       42.906070    0.000000E+00
  2        22.467280       48.389550    0.000000E+00
  2        22.467280       53.873020    0.000000E+00
  2        22.467280       59.356500    0.000000E+00
  2        25.462910       10.005210    0.000000E+00
  2        25.462910       15.488690    0.000000E+00
  2        25.462910       20.972170    0.000000E+00
  2        25.462910       26.455640    0.000000E+00
  2        25.462910       31.939120    0.000000E+00
  2        25.462910       37.422600    0.000000E+00
  2        25.462910       42.906070    0.000000E+00
  2        25.462910       48.389550    0.000000E+00
  2        25.462910       53.873020    0.000000E+00
  2        25.462910       59.356500    0.000000E+00
  2        28.458550       10.005210    0.000000E+00
  2        28.458550       15.488690    0.000000E+00
  2        28.458550       20.972170    0.000000E+00
  2        28.458550       26.455640    0.000000E+00
  2        28.458550       31.939120    0.000000E+00
  2        28.458550       37.422600    0.000000E+00
  2        28.458550       42.906070    0.000000E+00
  2        28.458550       48.389550    0.000000E+00
  2        28.458550       53.873020    0.000000E+00
  2        28.458550       59.356500    0.000000E+00
  2        31.454190       10.005210    0.000000E+00
  2        31.454190       15.488690    0.000000E+00
  2        31.454190       20.972170    0.000000E+00
  2        31.454190       26.455640    0.000000E+00
  2        31.454190       31.939120    0.000000E+00
  2        31.454190       37.422600    0.000000E+00
  2        31.454190       42.906070    0.000000E+00
  2        31.454190       48.389550    0.000000E+00
  2        31.454190       53.873020    0.000000E+00
  2        31.454190       59.356500    0.000000E+00
