900
Atoms. Timestep: 0
1 0 0 0
1 3.99158 0 0
1 0.57 0.98838 0
2 2.09053 1.45069 0
1 4.27579 3.4607 0
1 6.27158 0 0
1 10.2632 0 0
2 5.64462 2.53783 0
1 6.84158 0.98838 0
2 8.36211 1.45069 0
1 10.5474 3.4607 0
1 12.5432 0 0
1 16.5347 0 0
2 11.9162 2.53783 0
1 13.1132 0.98838 0
2 14.6337 1.45069 0
1 16.8189 3.4607 0
1 18.8147 0 0
1 22.8063 0 0
2 18.1878 2.53783 0
1 19.3847 0.98838 0
2 20.9053 1.45069 0
1 23.0905 3.4607 0
1 25.0863 0 0
1 29.0779 0 0
2 24.4594 2.53783 0
1 25.6563 0.98838 0
2 27.1768 1.45069 0
1 29.3621 3.4607 0
1 31.3579 0 0
1 35.3495 0 0
2 30.7309 2.53783 0
1 31.9279 0.98838 0
2 33.4484 1.45069 0
1 35.6337 3.4607 0
1 37.6295 0 0
1 41.6211 0 0
2 37.0025 2.53783 0
1 38.1995 0.98838 0
2 39.72 1.45069 0
1 41.9053 3.4607 0
1 43.9011 0 0
1 47.8926 0 0
2 43.2741 2.53783 0
1 44.4711 0.98838 0
2 45.9916 1.45069 0
1 48.1768 3.4607 0
1 50.1726 0 0
1 54.1642 0 0
2 49.5457 2.53783 0
1 50.7426 0.98838 0
2 52.2632 1.45069 0
1 54.4484 3.4607 0
1 56.4442 0 0
1 60.4358 0 0
2 55.8173 2.53783 0
1 57.0142 0.98838 0
2 58.5347 1.45069 0
1 60.72 3.4607 0
1 62.7158 0 0
1 66.7074 0 0
2 62.0888 2.53783 0
1 63.2858 0.98838 0
2 64.8063 1.45069 0
1 66.9916 3.4607 0
1 68.9874 0 0
1 72.979 0 0
2 68.3604 2.53783 0
1 69.5574 0.98838 0
2 71.0779 1.45069 0
1 73.2632 3.4607 0
1 75.259 0 0
1 79.2505 0 0
2 74.632 2.53783 0
1 75.829 0.98838 0
2 77.3495 1.45069 0
1 79.5347 3.4607 0
1 81.5305 0 0
1 85.5221 0 0
2 80.9036 2.53783 0
1 82.1005 0.98838 0
2 83.6211 1.45069 0
1 85.8063 3.4607 0
1 87.8021 0 0
1 91.7937 0 0
2 87.1752 2.53783 0
1 88.3721 0.98838 0
2 89.8926 1.45069 0
1 92.0779 3.4607 0
2 93.4467 2.53783 0
1 0.85579 5.43746 0
1 1.14 8.89816 0
1 3.13579 5.43746 0
1 7.12737 5.43746 0
2 2.50883 7.97529 0
1 3.70579 6.42584 0
2 5.22632 6.88815 0
1 7.41158 8.89816 0
1 9.40737 5.43746 0
1 13.3989 5.43746 0
2 8.78041 7.97529 0
1 9.97737 6.42584 0
2 11.4979 6.88815 0
1 13.6832 8.89816 0
1 15.6789 5.43746 0
1 19.6705 5.43746 0
2 15.052 7.97529 0
1 16.2489 6.42584 0
2 17.7695 6.88815 0
1 19.9547 8.89816 0
1 21.9505 5.43746 0
1 25.9421 5.43746 0
2 21.3236 7.97529 0
1 22.5205 6.42584 0
2 24.0411 6.88815 0
1 26.2263 8.89816 0
1 28.2221 5.43746 0
1 32.2137 5.43746 0
2 27.5952 7.97529 0
1 28.7921 6.42584 0
2 30.3126 6.88815 0
1 32.4979 8.89816 0
1 34.4937 5.43746 0
1 38.4853 5.43746 0
2 33.8667 7.97529 0
1 35.0637 6.42584 0
2 36.5842 6.88815 0
1 38.7695 8.89816 0
1 40.7653 5.43746 0
1 44.7568 5.43746 0
2 40.1383 7.97529 0
1 41.3353 6.42584 0
2 42.8558 6.88815 0
1 45.0411 8.89816 0
1 47.0368 5.43746 0
1 51.0284 5.43746 0
2 46.4099 7.97529 0
1 47.6068 6.42584 0
2 49.1274 6.88815 0
1 51.3126 8.89816 0
1 53.3084 5.43746 0
1 57.3 5.43746 0
2 52.6815 7.97529 0
1 53.8784 6.42584 0
2 55.399 6.88815 0
1 57.5842 8.89816 0
1 59.58 5.43746 0
1 63.5716 5.43746 0
2 58.9531 7.97529 0
1 60.15 6.42584 0
2 61.6705 6.88815 0
1 63.8558 8.89816 0
1 65.8516 5.43746 0
1 69.8432 5.43746 0
2 65.2246 7.97529 0
1 66.4216 6.42584 0
2 67.9421 6.88815 0
1 70.1274 8.89816 0
1 72.1232 5.43746 0
1 76.1147 5.43746 0
2 71.4962 7.97529 0
1 72.6932 6.42584 0
2 74.2137 6.88815 0
1 76.399 8.89816 0
1 78.3947 5.43746 0
1 82.3863 5.43746 0
2 77.7678 7.97529 0
1 78.9647 6.42584 0
2 80.4853 6.88815 0
1 82.6705 8.89816 0
1 84.6663 5.43746 0
1 88.6579 5.43746 0
2 84.0394 7.97529 0
1 85.2363 6.42584 0
2 86.7569 6.88815 0
1 88.9421 8.89816 0
1 90.9379 5.43746 0
2 90.311 7.97529 0
1 91.5079 6.42584 0
2 93.0284 6.88815 0
1 0 10.8749 0
1 3.99158 10.8749 0
1 0.57 11.8633 0
2 2.09053 12.3256 0
1 4.27579 14.3356 0
1 6.27158 10.8749 0
1 10.2632 10.8749 0
2 5.64462 13.4128 0
1 6.84158 11.8633 0
2 8.36211 12.3256 0
1 10.5474 14.3356 0
1 12.5432 10.8749 0
1 16.5347 10.8749 0
2 11.9162 13.4128 0
1 13.1132 11.8633 0
2 14.6337 12.3256 0
1 16.8189 14.3356 0
1 18.8147 10.8749 0
1 22.8063 10.8749 0
2 18.1878 13.4128 0
1 19.3847 11.8633 0
2 20.9053 12.3256 0
1 23.0905 14.3356 0
1 25.0863 10.8749 0
1 29.0779 10.8749 0
2 24.4594 13.4128 0
1 25.6563 11.8633 0
2 27.1768 12.3256 0
1 29.3621 14.3356 0
1 31.3579 10.8749 0
1 35.3495 10.8749 0
2 30.7309 13.4128 0
1 31.9279 11.8633 0
2 33.4484 12.3256 0
1 35.6337 14.3356 0
1 37.6295 10.8749 0
1 41.6211 10.8749 0
2 37.0025 13.4128 0
1 38.1995 11.8633 0
2 39.72 12.3256 0
1 41.9053 14.3356 0
1 43.9011 10.8749 0
1 47.8926 10.8749 0
2 43.2741 13.4128 0
1 44.4711 11.8633 0
2 45.9916 12.3256 0
1 48.1768 14.3356 0
1 50.1726 10.8749 0
1 54.1642 10.8749 0
2 49.5457 13.4128 0
1 50.7426 11.8633 0
2 52.2632 12.3256 0
1 54.4484 14.3356 0
1 56.4442 10.8749 0
1 60.4358 10.8749 0
2 55.8173 13.4128 0
1 57.0142 11.8633 0
2 58.5347 12.3256 0
1 60.72 14.3356 0
1 62.7158 10.8749 0
1 66.7074 10.8749 0
2 62.0888 13.4128 0
1 63.2858 11.8633 0
2 64.8063 12.3256 0
1 66.9916 14.3356 0
1 68.9874 10.8749 0
1 72.979 10.8749 0
2 68.3604 13.4128 0
1 69.5574 11.8633 0
2 71.0779 12.3256 0
1 73.2632 14.3356 0
1 75.259 10.8749 0
1 79.2505 10.8749 0
2 74.632 13.4128 0
1 75.829 11.8633 0
2 77.3495 12.3256 0
1 79.5347 14.3356 0
1 81.5305 10.8749 0
1 85.5221 10.8749 0
2 80.9036 13.4128 0
1 82.1005 11.8633 0
2 83.6211 12.3256 0
1 85.8063 14.3356 0
1 87.8021 10.8749 0
1 91.7937 10.8749 0
2 87.1752 13.4128 0
1 88.3721 11.8633 0
2 89.8926 12.3256 0
1 92.0779 14.3356 0
2 93.4467 13.4128 0
1 0.85579 16.3124 0
1 1.14 19.7731 0
1 3.13579 16.3124 0
1 7.12737 16.3124 0
2 2.50883 18.8502 0
1 3.70579 17.3008 0
2 5.22632 17.7631 0
1 7.41158 19.7731 0
1 9.40737 16.3124 0
1 13.3989 16.3124 0
2 8.78041 18.8502 0
1 9.97737 17.3008 0
2 11.4979 17.7631 0
1 13.6832 19.7731 0
1 15.6789 16.3124 0
1 19.6705 16.3124 0
2 15.052 18.8502 0
1 16.2489 17.3008 0
2 17.7695 17.7631 0
1 19.9547 19.7731 0
1 21.9505 16.3124 0
1 25.9421 16.3124 0
2 21.3236 18.8502 0
1 22.5205 17.3008 0
2 24.0411 17.7631 0
1 26.2263 19.7731 0
1 28.2221 16.3124 0
1 32.2137 16.3124 0
2 27.5952 18.8502 0
1 28.7921 17.3008 0
2 30.3126 17.7631 0
1 32.4979 19.7731 0
1 34.4937 16.3124 0
1 38.4853 16.3124 0
2 33.8667 18.8502 0
1 35.0637 17.3008 0
2 36.5842 17.7631 0
1 38.7695 19.7731 0
1 40.7653 16.3124 0
1 44.7568 16.3124 0
2 40.1383 18.8502 0
1 41.3353 17.3008 0
2 42.8558 17.7631 0
1 45.0411 19.7731 0
1 47.0368 16.3124 0
1 51.0284 16.3124 0
2 46.4099 18.8502 0
1 47.6068 17.3008 0
2 49.1274 17.7631 0
1 51.3126 19.7731 0
1 53.3084 16.3124 0
1 57.3 16.3124 0
2 52.6815 18.8502 0
1 53.8784 17.3008 0
2 55.399 17.7631 0
1 57.5842 19.7731 0
1 59.58 16.3124 0
1 63.5716 16.3124 0
2 58.9531 18.8502 0
1 60.15 17.3008 0
2 61.6705 17.7631 0
1 63.8558 19.7731 0
1 65.8516 16.3124 0
1 69.8432 16.3124 0
2 65.2246 18.8502 0
1 66.4216 17.3008 0
2 67.9421 17.7631 0
1 70.1274 19.7731 0
1 72.1232 16.3124 0
1 76.1147 16.3124 0
2 71.4962 18.8502 0
1 72.6932 17.3008 0
2 74.2137 17.7631 0
1 76.399 19.7731 0
1 78.3947 16.3124 0
1 82.3863 16.3124 0
2 77.7678 18.8502 0
1 78.9647 17.3008 0
2 80.4853 17.7631 0
1 82.6705 19.7731 0
1 84.6663 16.3124 0
1 88.6579 16.3124 0
2 84.0394 18.8502 0
1 85.2363 17.3008 0
2 86.7569 17.7631 0
1 88.9421 19.7731 0
1 90.9379 16.3124 0
2 90.311 18.8502 0
1 91.5079 17.3008 0
2 93.0284 17.7631 0
1 0 21.7498 0
1 3.99158 21.7498 0
1 0.57 22.7382 0
2 2.09053 23.2005 0
1 4.27579 25.2105 0
1 6.27158 21.7498 0
1 10.2632 21.7498 0
2 5.64462 24.2877 0
1 6.84158 22.7382 0
2 8.36211 23.2005 0
1 10.5474 25.2105 0
1 12.5432 21.7498 0
1 16.5347 21.7498 0
2 11.9162 24.2877 0
1 13.1132 22.7382 0
2 14.6337 23.2005 0
1 16.8189 25.2105 0
1 18.8147 21.7498 0
1 22.8063 21.7498 0
2 18.1878 24.2877 0
1 19.3847 22.7382 0
2 20.9053 23.2005 0
1 23.0905 25.2105 0
1 25.0863 21.7498 0
1 29.0779 21.7498 0
2 24.4594 24.2877 0
1 25.6563 22.7382 0
2 27.1768 23.2005 0
1 29.3621 25.2105 0
1 31.3579 21.7498 0
1 35.3495 21.7498 0
2 30.7309 24.2877 0
1 31.9279 22.7382 0
2 33.4484 23.2005 0
1 35.6337 25.2105 0
1 37.6295 21.7498 0
1 41.6211 21.7498 0
2 37.0025 24.2877 0
1 38.1995 22.7382 0
2 39.72 23.2005 0
1 41.9053 25.2105 0
1 43.9011 21.7498 0
1 47.8926 21.7498 0
2 43.2741 24.2877 0
1 44.4711 22.7382 0
2 45.9916 23.2005 0
1 48.1768 25.2105 0
1 50.1726 21.7498 0
1 54.1642 21.7498 0
2 49.5457 24.2877 0
1 50.7426 22.7382 0
2 52.2632 23.2005 0
1 54.4484 25.2105 0
1 56.4442 21.7498 0
1 60.4358 21.7498 0
2 55.8173 24.2877 0
1 57.0142 22.7382 0
2 58.5347 23.2005 0
1 60.72 25.2105 0
1 62.7158 21.7498 0
1 66.7074 21.7498 0
2 62.0888 24.2877 0
1 63.2858 22.7382 0
2 64.8063 23.2005 0
1 66.9916 25.2105 0
1 68.9874 21.7498 0
1 72.979 21.7498 0
2 68.3604 24.2877 0
1 69.5574 22.7382 0
2 71.0779 23.2005 0
1 73.2632 25.2105 0
1 75.259 21.7498 0
1 79.2505 21.7498 0
2 74.632 24.2877 0
1 75.829 22.7382 0
2 77.3495 23.2005 0
1 79.5347 25.2105 0
1 81.5305 21.7498 0
1 85.5221 21.7498 0
2 80.9036 24.2877 0
1 82.1005 22.7382 0
2 83.6211 23.2005 0
1 85.8063 25.2105 0
1 87.8021 21.7498 0
1 91.7937 21.7498 0
2 87.1752 24.2877 0
1 88.3721 22.7382 0
2 89.8926 23.2005 0
1 92.0779 25.2105 0
2 93.4467 24.2877 0
1 0.85579 27.1873 0
1 1.14 30.648 0
1 3.13579 27.1873 0
1 7.12737 27.1873 0
2 2.50883 29.7251 0
1 3.70579 28.1757 0
2 5.22632 28.638 0
1 7.41158 30.648 0
1 9.40737 27.1873 0
1 13.3989 27.1873 0
2 8.78041 29.7251 0
1 9.97737 28.1757 0
2 11.4979 28.638 0
1 13.6832 30.648 0
1 15.6789 27.1873 0
1 19.6705 27.1873 0
2 15.052 29.7251 0
1 16.2489 28.1757 0
2 17.7695 28.638 0
1 19.9547 30.648 0
1 21.9505 27.1873 0
1 25.9421 27.1873 0
2 21.3236 29.7251 0
1 22.5205 28.1757 0
2 24.0411 28.638 0
1 26.2263 30.648 0
1 28.2221 27.1873 0
1 32.2137 27.1873 0
2 27.5952 29.7251 0
1 28.7921 28.1757 0
2 30.3126 28.638 0
1 32.4979 30.648 0
1 34.4937 27.1873 0
1 38.4853 27.1873 0
2 33.8667 29.7251 0
1 35.0637 28.1757 0
2 36.5842 28.638 0
1 38.7695 30.648 0
1 40.7653 27.1873 0
1 44.7568 27.1873 0
2 40.1383 29.7251 0
1 41.3353 28.1757 0
2 42.8558 28.638 0
1 45.0411 30.648 0
1 47.0368 27.1873 0
1 51.0284 27.1873 0
2 46.4099 29.7251 0
1 47.6068 28.1757 0
2 49.1274 28.638 0
1 51.3126 30.648 0
1 53.3084 27.1873 0
1 57.3 27.1873 0
2 52.6815 29.7251 0
1 53.8784 28.1757 0
2 55.399 28.638 0
1 57.5842 30.648 0
1 59.58 27.1873 0
1 63.5716 27.1873 0
2 58.9531 29.7251 0
1 60.15 28.1757 0
2 61.6705 28.638 0
1 63.8558 30.648 0
1 65.8516 27.1873 0
1 69.8432 27.1873 0
2 65.2246 29.7251 0
1 66.4216 28.1757 0
2 67.9421 28.638 0
1 70.1274 30.648 0
1 72.1232 27.1873 0
1 76.1147 27.1873 0
2 71.4962 29.7251 0
1 72.6932 28.1757 0
2 74.2137 28.638 0
1 76.399 30.648 0
1 78.3947 27.1873 0
1 82.3863 27.1873 0
2 77.7678 29.7251 0
1 78.9647 28.1757 0
2 80.4853 28.638 0
1 82.6705 30.648 0
1 84.6663 27.1873 0
1 88.6579 27.1873 0
2 84.0394 29.7251 0
1 85.2363 28.1757 0
2 86.7569 28.638 0
1 88.9421 30.648 0
1 90.9379 27.1873 0
2 90.311 29.7251 0
1 91.5079 28.1757 0
2 93.0284 28.638 0
1 0 32.6248 0
1 3.99158 32.6248 0
1 0.57 33.6131 0
2 2.09053 34.0754 0
1 4.27579 36.0855 0
1 6.27158 32.6248 0
1 10.2632 32.6248 0
2 5.64462 35.1626 0
1 6.84158 33.6131 0
2 8.36211 34.0754 0
1 10.5474 36.0855 0
1 12.5432 32.6248 0
1 16.5347 32.6248 0
2 11.9162 35.1626 0
1 13.1132 33.6131 0
2 14.6337 34.0754 0
1 16.8189 36.0855 0
1 18.8147 32.6248 0
1 22.8063 32.6248 0
2 18.1878 35.1626 0
1 19.3847 33.6131 0
2 20.9053 34.0754 0
1 23.0905 36.0855 0
1 25.0863 32.6248 0
1 29.0779 32.6248 0
2 24.4594 35.1626 0
1 25.6563 33.6131 0
2 27.1768 34.0754 0
1 29.3621 36.0855 0
1 31.3579 32.6248 0
1 35.3495 32.6248 0
2 30.7309 35.1626 0
1 31.9279 33.6131 0
2 33.4484 34.0754 0
1 35.6337 36.0855 0
1 37.6295 32.6248 0
1 41.6211 32.6248 0
2 37.0025 35.1626 0
1 38.1995 33.6131 0
2 39.72 34.0754 0
1 41.9053 36.0855 0
1 43.9011 32.6248 0
1 47.8926 32.6248 0
2 43.2741 35.1626 0
1 44.4711 33.6131 0
2 45.9916 34.0754 0
1 48.1768 36.0855 0
1 50.1726 32.6248 0
1 54.1642 32.6248 0
2 49.5457 35.1626 0
1 50.7426 33.6131 0
2 52.2632 34.0754 0
1 54.4484 36.0855 0
1 56.4442 32.6248 0
1 60.4358 32.6248 0
2 55.8173 35.1626 0
1 57.0142 33.6131 0
2 58.5347 34.0754 0
1 60.72 36.0855 0
1 62.7158 32.6248 0
1 66.7074 32.6248 0
2 62.0888 35.1626 0
1 63.2858 33.6131 0
2 64.8063 34.0754 0
1 66.9916 36.0855 0
1 68.9874 32.6248 0
1 72.979 32.6248 0
2 68.3604 35.1626 0
1 69.5574 33.6131 0
2 71.0779 34.0754 0
1 73.2632 36.0855 0
1 75.259 32.6248 0
1 79.2505 32.6248 0
2 74.632 35.1626 0
1 75.829 33.6131 0
2 77.3495 34.0754 0
1 79.5347 36.0855 0
1 81.5305 32.6248 0
1 85.5221 32.6248 0
2 80.9036 35.1626 0
1 82.1005 33.6131 0
2 83.6211 34.0754 0
1 85.8063 36.0855 0
1 87.8021 32.6248 0
1 91.7937 32.6248 0
2 87.1752 35.1626 0
1 88.3721 33.6131 0
2 89.8926 34.0754 0
1 92.0779 36.0855 0
2 93.4467 35.1626 0
1 0.85579 38.0622 0
1 1.14 41.5229 0
1 3.13579 38.0622 0
1 7.12737 38.0622 0
2 2.50883 40.6 0
1 3.70579 39.0506 0
2 5.22632 39.5129 0
1 7.41158 41.5229 0
1 9.40737 38.0622 0
1 13.3989 38.0622 0
2 8.78041 40.6 0
1 9.97737 39.0506 0
2 11.4979 39.5129 0
1 13.6832 41.5229 0
1 15.6789 38.0622 0
1 19.6705 38.0622 0
2 15.052 40.6 0
1 16.2489 39.0506 0
2 17.7695 39.5129 0
1 19.9547 41.5229 0
1 21.9505 38.0622 0
1 25.9421 38.0622 0
2 21.3236 40.6 0
1 22.5205 39.0506 0
2 24.0411 39.5129 0
1 26.2263 41.5229 0
1 28.2221 38.0622 0
1 32.2137 38.0622 0
2 27.5952 40.6 0
1 28.7921 39.0506 0
2 30.3126 39.5129 0
1 32.4979 41.5229 0
1 34.4937 38.0622 0
1 38.4853 38.0622 0
2 33.8667 40.6 0
1 35.0637 39.0506 0
2 36.5842 39.5129 0
1 38.7695 41.5229 0
1 40.7653 38.0622 0
1 44.7568 38.0622 0
2 40.1383 40.6 0
1 41.3353 39.0506 0
2 42.8558 39.5129 0
1 45.0411 41.5229 0
1 47.0368 38.0622 0
1 51.0284 38.0622 0
2 46.4099 40.6 0
1 47.6068 39.0506 0
2 49.1274 39.5129 0
1 51.3126 41.5229 0
1 53.3084 38.0622 0
1 57.3 38.0622 0
2 52.6815 40.6 0
1 53.8784 39.0506 0
2 55.399 39.5129 0
1 57.5842 41.5229 0
1 59.58 38.0622 0
1 63.5716 38.0622 0
2 58.9531 40.6 0
1 60.15 39.0506 0
2 61.6705 39.5129 0
1 63.8558 41.5229 0
1 65.8516 38.0622 0
1 69.8432 38.0622 0
2 65.2246 40.6 0
1 66.4216 39.0506 0
2 67.9421 39.5129 0
1 70.1274 41.5229 0
1 72.1232 38.0622 0
1 76.1147 38.0622 0
2 71.4962 40.6 0
1 72.6932 39.0506 0
2 74.2137 39.5129 0
1 76.399 41.5229 0
1 78.3947 38.0622 0
1 82.3863 38.0622 0
2 77.7678 40.6 0
1 78.9647 39.0506 0
2 80.4853 39.5129 0
1 82.6705 41.5229 0
1 84.6663 38.0622 0
1 88.6579 38.0622 0
2 84.0394 40.6 0
1 85.2363 39.0506 0
2 86.7569 39.5129 0
1 88.9421 41.5229 0
1 90.9379 38.0622 0
2 90.311 40.6 0
1 91.5079 39.0506 0
2 93.0284 39.5129 0
1 0 43.4997 0
1 3.99158 43.4997 0
1 0.57 44.4881 0
2 2.09053 44.9504 0
1 4.27579 46.9604 0
1 6.27158 43.4997 0
1 10.2632 43.4997 0
2 5.64462 46.0375 0
1 6.84158 44.4881 0
2 8.36211 44.9504 0
1 10.5474 46.9604 0
1 12.5432 43.4997 0
1 16.5347 43.4997 0
2 11.9162 46.0375 0
1 13.1132 44.4881 0
2 14.6337 44.9504 0
1 16.8189 46.9604 0
1 18.8147 43.4997 0
1 22.8063 43.4997 0
2 18.1878 46.0375 0
1 19.3847 44.4881 0
2 20.9053 44.9504 0
1 23.0905 46.9604 0
1 25.0863 43.4997 0
1 29.0779 43.4997 0
2 24.4594 46.0375 0
1 25.6563 44.4881 0
2 27.1768 44.9504 0
1 29.3621 46.9604 0
1 31.3579 43.4997 0
1 35.3495 43.4997 0
2 30.7309 46.0375 0
1 31.9279 44.4881 0
2 33.4484 44.9504 0
1 35.6337 46.9604 0
1 37.6295 43.4997 0
1 41.6211 43.4997 0
2 37.0025 46.0375 0
1 38.1995 44.4881 0
2 39.72 44.9504 0
1 41.9053 46.9604 0
1 43.9011 43.4997 0
1 47.8926 43.4997 0
2 43.2741 46.0375 0
1 44.4711 44.4881 0
2 45.9916 44.9504 0
1 48.1768 46.9604 0
1 50.1726 43.4997 0
1 54.1642 43.4997 0
2 49.5457 46.0375 0
1 50.7426 44.4881 0
2 52.2632 44.9504 0
1 54.4484 46.9604 0
1 56.4442 43.4997 0
1 60.4358 43.4997 0
2 55.8173 46.0375 0
1 57.0142 44.4881 0
2 58.5347 44.9504 0
1 60.72 46.9604 0
1 62.7158 43.4997 0
1 66.7074 43.4997 0
2 62.0888 46.0375 0
1 63.2858 44.4881 0
2 64.8063 44.9504 0
1 66.9916 46.9604 0
1 68.9874 43.4997 0
1 72.979 43.4997 0
2 68.3604 46.0375 0
1 69.5574 44.4881 0
2 71.0779 44.9504 0
1 73.2632 46.9604 0
1 75.259 43.4997 0
1 79.2505 43.4997 0
2 74.632 46.0375 0
1 75.829 44.4881 0
2 77.3495 44.9504 0
1 79.5347 46.9604 0
1 81.5305 43.4997 0
1 85.5221 43.4997 0
2 80.9036 46.0375 0
1 82.1005 44.4881 0
2 83.6211 44.9504 0
1 85.8063 46.9604 0
1 87.8021 43.4997 0
1 91.7937 43.4997 0
2 87.1752 46.0375 0
1 88.3721 44.4881 0
2 89.8926 44.9504 0
1 92.0779 46.9604 0
2 93.4467 46.0375 0
1 0.85579 48.9371 0
1 1.14 52.3978 0
1 3.13579 48.9371 0
1 7.12737 48.9371 0
2 2.50883 51.475 0
1 3.70579 49.9255 0
2 5.22632 50.3878 0
1 7.41158 52.3978 0
1 9.40737 48.9371 0
1 13.3989 48.9371 0
2 8.78041 51.475 0
1 9.97737 49.9255 0
2 11.4979 50.3878 0
1 13.6832 52.3978 0
1 15.6789 48.9371 0
1 19.6705 48.9371 0
2 15.052 51.475 0
1 16.2489 49.9255 0
2 17.7695 50.3878 0
1 19.9547 52.3978 0
1 21.9505 48.9371 0
1 25.9421 48.9371 0
2 21.3236 51.475 0
1 22.5205 49.9255 0
2 24.0411 50.3878 0
1 26.2263 52.3978 0
1 28.2221 48.9371 0
1 32.2137 48.9371 0
2 27.5952 51.475 0
1 28.7921 49.9255 0
2 30.3126 50.3878 0
1 32.4979 52.3978 0
1 34.4937 48.9371 0
1 38.4853 48.9371 0
2 33.8667 51.475 0
1 35.0637 49.9255 0
2 36.5842 50.3878 0
1 38.7695 52.3978 0
1 40.7653 48.9371 0
1 44.7568 48.9371 0
2 40.1383 51.475 0
1 41.3353 49.9255 0
2 42.8558 50.3878 0
1 45.0411 52.3978 0
1 47.0368 48.9371 0
1 51.0284 48.9371 0
2 46.4099 51.475 0
1 47.6068 49.9255 0
2 49.1274 50.3878 0
1 51.3126 52.3978 0
1 53.3084 48.9371 0
1 57.3 48.9371 0
2 52.6815 51.475 0
1 53.8784 49.9255 0
2 55.399 50.3878 0
1 57.5842 52.3978 0
1 59.58 48.9371 0
1 63.5716 48.9371 0
2 58.9531 51.475 0
1 60.15 49.9255 0
2 61.6705 50.3878 0
1 63.8558 52.3978 0
1 65.8516 48.9371 0
1 69.8432 48.9371 0
2 65.2246 51.475 0
1 66.4216 49.9255 0
2 67.9421 50.3878 0
1 70.1274 52.3978 0
1 72.1232 48.9371 0
1 76.1147 48.9371 0
2 71.4962 51.475 0
1 72.6932 49.9255 0
2 74.2137 50.3878 0
1 76.399 52.3978 0
1 78.3947 48.9371 0
1 82.3863 48.9371 0
2 77.7678 51.475 0
1 78.9647 49.9255 0
2 80.4853 50.3878 0
1 82.6705 52.3978 0
1 84.6663 48.9371 0
1 88.6579 48.9371 0
2 84.0394 51.475 0
1 85.2363 49.9255 0
2 86.7569 50.3878 0
1 88.9421 52.3978 0
1 90.9379 48.9371 0
2 90.311 51.475 0
1 91.5079 49.9255 0
2 93.0284 50.3878 0
900
Atoms. Timestep: 50000
1 90.706 52.2444 0
1 6.5065 52.2272 0
1 4.01294 3.44349 0
2 5.82587 3.18166 0
1 6.93122 4.62367 0
1 8.77218 52.2496 0
1 12.3632 52.2547 0
2 8.74623 4.86956 0
1 9.86721 3.45415 0
2 11.6877 3.20878 0
1 12.8012 4.6252 0
1 14.6327 52.2086 0
1 18.2299 52.2362 0
2 14.5963 4.89093 0
1 15.7074 3.43226 0
2 17.538 3.17545 0
1 18.6377 4.62951 0
1 20.4715 52.2455 0
1 24.0716 52.2749 0
2 20.455 4.90182 0
1 21.5977 3.44459 0
2 23.3869 3.20024 0
1 24.5135 4.64127 0
1 26.3198 52.2665 0
1 29.9005 52.2598 0
2 26.3283 4.88269 0
1 27.4377 3.44822 0
2 29.2332 3.21129 0
1 30.3668 4.63547 0
1 32.1407 52.2358 0
1 35.774 52.2485 0
2 32.1558 4.87862 0
1 33.2993 3.43066 0
2 35.0915 3.17693 0
1 36.1958 4.63013 0
1 38.013 52.2199 0
1 41.591 52.2508 0
2 38.0045 4.88948 0
1 39.1248 3.44189 0
2 40.9303 3.20176 0
1 42.0546 4.63945 0
1 43.8432 52.2258 0
1 47.4534 52.2543 0
2 43.8541 4.90239 0
1 44.963 3.46997 0
2 46.7664 3.20952 0
1 47.9101 4.65939 0
1 49.6946 52.2489 0
1 53.3162 52.2417 0
2 49.7032 4.89449 0
1 50.8392 3.44254 0
2 52.6362 3.1994 0
1 53.7601 4.62463 0
1 55.5827 52.2539 0
1 59.1633 52.2473 0
2 55.5754 4.90483 0
1 56.7158 3.46302 0
2 58.5041 3.19697 0
1 59.6209 4.64462 0
1 61.4118 52.2699 0
1 65.0156 52.2545 0
2 61.4206 4.9042 0
1 62.5272 3.44106 0
2 64.3329 3.18996 0
1 65.4832 4.6384 0
1 67.2568 52.248 0
1 70.8913 52.2482 0
2 67.2839 4.88963 0
1 68.4012 3.44845 0
2 70.204 3.20045 0
1 71.329 4.63226 0
1 73.1314 52.2555 0
1 76.7439 52.2348 0
2 73.1445 4.87266 0
1 74.2554 3.43053 0
2 76.0583 3.18029 0
1 77.1643 4.62431 0
1 78.9754 52.2412 0
1 82.5848 52.2206 0
2 78.9787 4.88017 0
1 80.0886 3.45177 0
2 81.8957 3.17371 0
1 83.0583 4.63982 0
1 84.8491 52.2957 0
1 88.424 52.2371 0
2 84.8487 4.90078 0
1 85.9878 3.47562 0
2 87.7559 3.18638 0
1 88.886 4.6381 0
2 90.6979 4.90407 0
1 3.58101 6.60136 0
1 4.00499 9.69849 0
1 5.82534 6.59928 0
1 9.42132 6.55257 0
2 5.82291 9.96623 0
1 6.95207 8.5526 0
2 8.74651 8.2675 0
1 9.89083 9.68661 0
1 11.6621 6.56463 0
1 15.3016 6.5678 0
2 11.6927 9.9552 0
1 12.833 8.49902 0
2 14.6181 8.26042 0
1 15.7303 9.6941 0
1 17.5227 6.59381 0
1 21.1418 6.59276 0
2 17.5283 9.95772 0
1 18.6253 8.51825 0
2 20.4326 8.27768 0
1 21.5773 9.69968 0
1 23.3919 6.56789 0
1 26.9996 6.55915 0
2 23.397 9.9647 0
1 24.5168 8.52735 0
2 26.3114 8.27905 0
1 27.4488 9.71116 0
1 29.2432 6.59934 0
1 32.8209 6.5659 0
2 29.2276 9.98269 0
1 30.357 8.56091 0
2 32.141 8.28455 0
1 33.2578 9.72276 0
1 35.0721 6.58777 0
1 38.6872 6.58085 0
2 35.0712 9.97772 0
1 36.1968 8.54835 0
2 38.0136 8.25995 0
1 39.1199 9.70273 0
1 40.9331 6.56496 0
1 44.5338 6.57059 0
2 40.9258 9.95853 0
1 42.0605 8.52349 0
2 43.8682 8.27955 0
1 44.9832 9.69991 0
1 46.7958 6.58277 0
1 50.3995 6.59401 0
2 46.8024 9.98356 0
1 47.9189 8.53748 0
2 49.7053 8.27939 0
1 50.8535 9.70938 0
1 52.6239 6.57745 0
1 56.2663 6.59795 0
2 52.6628 9.96084 0
1 53.7553 8.5231 0
2 55.5803 8.28461 0
1 56.7086 9.73818 0
1 58.503 6.55151 0
1 62.1265 6.57741 0
2 58.497 9.96333 0
1 59.6215 8.51752 0
2 61.417 8.26704 0
1 62.5317 9.69972 0
1 64.3878 6.58819 0
1 67.9583 6.58661 0
2 64.3554 9.95526 0
1 65.4954 8.5111 0
2 67.2733 8.27548 0
1 68.399 9.70915 0
1 70.1979 6.5869 0
1 73.8288 6.60739 0
2 70.2107 9.9574 0
1 71.3187 8.51371 0
2 73.1223 8.2826 0
1 74.2552 9.72544 0
1 76.0363 6.59556 0
1 79.6854 6.55984 0
2 76.0653 9.96017 0
1 77.1842 8.53102 0
2 79.0062 8.2786 0
1 80.1148 9.70927 0
1 81.9494 6.56865 0
1 85.5292 6.61021 0
2 81.9189 9.93837 0
1 83.0409 8.51647 0
2 84.8088 8.2941 0
1 85.9357 9.72205 0
1 87.7606 6.57706 0
2 87.7643 9.94689 0
1 88.9034 8.51702 0
2 90.7249 8.2751 0
1 90.6812 11.6552 0
1 6.48754 11.678 0
1 4.00658 13.6052 0
2 5.80948 13.3647 0
1 6.94051 14.798 0
1 8.74985 11.6345 0
1 12.3568 11.6303 0
2 8.75856 15.043 0
1 9.85644 13.5842 0
2 11.6568 13.3061 0
1 12.7901 14.7372 0
1 14.5735 11.6136 0
1 18.2177 11.6425 0
2 14.6046 15.0369 0
1 15.7375 13.5787 0
2 17.5262 13.3316 0
1 18.6262 14.7674 0
1 20.4742 11.6682 0
1 24.0751 11.6377 0
2 20.4393 15.0206 0
1 21.5773 13.6009 0
2 23.3791 13.3271 0
1 24.4949 14.759 0
1 26.3131 11.6507 0
1 29.9003 11.6728 0
2 26.2879 15.0351 0
1 27.429 13.602 0
2 29.2207 13.3528 0
1 30.3532 14.7786 0
1 32.1637 11.6697 0
1 35.766 11.6683 0
2 32.1385 15.0081 0
1 33.2671 13.5925 0
2 35.0723 13.3457 0
1 36.2097 14.7821 0
1 38.0041 11.6583 0
1 41.6118 11.6608 0
2 38.0146 15.0306 0
1 39.1359 13.5986 0
2 40.9364 13.3297 0
1 42.0523 14.785 0
1 43.8593 11.6652 0
1 47.4775 11.6433 0
2 43.8616 15.0566 0
1 44.9806 13.6122 0
2 46.803 13.3414 0
1 47.9344 14.7625 0
1 49.725 11.6433 0
1 53.3516 11.6759 0
2 49.7416 15.0348 0
1 50.8625 13.5951 0
2 52.6595 13.3426 0
1 53.7609 14.7874 0
1 55.5752 11.6699 0
1 59.1966 11.6528 0
2 55.5705 15.0267 0
1 56.6947 13.5831 0
2 58.4983 13.3424 0
1 59.606 14.8037 0
1 61.4096 11.6629 0
1 65.0544 11.6307 0
2 61.4131 15.041 0
1 62.5126 13.5908 0
2 64.3643 13.3294 0
1 65.4727 14.7969 0
1 67.323 11.6529 0
1 70.9294 11.6482 0
2 67.2798 15.0461 0
1 68.4158 13.61 0
2 70.2244 13.3582 0
1 71.333 14.8 0
1 73.1673 11.6822 0
1 76.7559 11.6375 0
2 73.1285 15.0223 0
1 74.2514 13.6002 0
2 76.0558 13.3666 0
1 77.1697 14.7994 0
1 79.0112 11.6566 0
1 82.6119 11.651 0
2 78.9754 15.0601 0
1 80.1254 13.596 0
2 81.9354 13.3571 0
1 83.0376 14.7924 0
1 84.8438 11.6795 0
1 88.4352 11.6516 0
2 84.8603 15.0579 0
1 85.9485 13.6293 0
2 87.7456 13.3672 0
1 88.8844 14.7863 0
2 90.69 15.0186 0
1 3.56975 16.6812 0
1 4.03585 19.8496 0
1 5.82154 16.726 0
1 9.43977 16.7242 0
2 5.8318 20.1068 0
1 6.93801 18.6828 0
2 8.73725 18.4099 0
1 9.86686 19.8484 0
1 11.6963 16.6796 0
1 15.3064 16.722 0
2 11.6831 20.09 0
1 12.8224 18.6496 0
2 14.6168 18.4109 0
1 15.7259 19.8495 0
1 17.5562 16.7305 0
1 21.1283 16.6984 0
2 17.5316 20.1104 0
1 18.6367 18.6613 0
2 20.4472 18.3923 0
1 21.5867 19.8392 0
1 23.3973 16.7107 0
1 26.9676 16.7259 0
2 23.3761 20.1034 0
1 24.4845 18.6504 0
2 26.2714 18.4109 0
1 27.4058 19.8523 0
1 29.2339 16.7169 0
1 32.8313 16.7258 0
2 29.2208 20.1208 0
1 30.3396 18.6805 0
2 32.1644 18.4149 0
1 33.2866 19.8705 0
1 35.0782 16.729 0
1 38.7096 16.7252 0
2 35.0957 20.1197 0
1 36.1979 18.6711 0
2 38.0092 18.4266 0
1 39.1312 19.8765 0
1 40.9401 16.7133 0
1 44.5366 16.7551 0
2 40.9516 20.1376 0
1 42.0459 18.6889 0
2 43.8456 18.4397 0
1 44.9844 19.8683 0
1 46.7928 16.7399 0
1 50.4243 16.7297 0
2 46.7925 20.1265 0
1 47.931 18.6791 0
2 49.7248 18.4228 0
1 50.8449 19.8606 0
1 52.6569 16.7408 0
1 56.264 16.7355 0
2 52.6307 20.1132 0
1 53.7681 18.6969 0
2 55.5881 18.4337 0
1 56.7001 19.8711 0
1 58.4945 16.7321 0
1 62.1274 16.7249 0
2 58.4988 20.0942 0
1 59.6346 18.6555 0
2 61.4227 18.3963 0
1 62.5478 19.8425 0
1 64.3674 16.7253 0
1 67.9617 16.7195 0
2 64.3505 20.0892 0
1 65.477 18.6483 0
2 67.2657 18.4179 0
1 68.3857 19.8657 0
1 70.1799 16.724 0
1 73.7936 16.7066 0
2 70.2102 20.1121 0
1 71.3161 18.6523 0
2 73.1216 18.4023 0
1 74.2424 19.8533 0
1 76.0188 16.7429 0
1 79.679 16.7299 0
2 76.0615 20.0852 0
1 77.1655 18.6606 0
2 78.9718 18.4218 0
1 80.0934 19.8554 0
1 81.9047 16.731 0
1 85.517 16.7244 0
2 81.8935 20.1168 0
1 83.0314 18.6722 0
2 84.8323 18.417 0
1 85.976 19.8392 0
1 87.7722 16.758 0
2 87.7883 20.1284 0
1 88.9091 18.6885 0
2 90.7038 18.4058 0
1 90.7216 21.7925 0
1 6.48857 21.8232 0
1 4.01254 23.756 0
2 5.81078 23.4888 0
1 6.9542 24.9268 0
1 8.74394 21.7758 0
1 12.354 21.7807 0
2 8.77389 25.1803 0
1 9.88224 23.7243 0
2 11.6696 23.4763 0
1 12.8128 24.9203 0
1 14.5954 21.8017 0
1 18.2037 21.808 0
2 14.6181 25.1998 0
1 15.7441 23.7583 0
2 17.5245 23.4986 0
1 18.6437 24.9455 0
1 20.4742 21.8076 0
1 24.0455 21.7889 0
2 20.4356 25.1786 0
1 21.5551 23.7513 0
2 23.3602 23.482 0
1 24.4823 24.9166 0
1 26.2778 21.8022 0
1 29.9209 21.8171 0
2 26.3043 25.1663 0
1 27.4235 23.727 0
2 29.208 23.5003 0
1 30.3377 24.9606 0
1 32.1644 21.8125 0
1 35.7737 21.8134 0
2 32.1493 25.2018 0
1 33.2638 23.7602 0
2 35.0879 23.5042 0
1 36.2192 24.945 0
1 38.002 21.7987 0
1 41.6252 21.8082 0
2 38.0259 25.1899 0
1 39.1293 23.7564 0
2 40.9335 23.4793 0
1 42.0436 24.9275 0
1 43.8549 21.8014 0
1 47.4763 21.8196 0
2 43.861 25.1862 0
1 44.9852 23.759 0
2 46.7937 23.5127 0
1 47.9174 24.9426 0
1 49.7268 21.7951 0
1 53.3188 21.8296 0
2 49.7212 25.1792 0
1 50.8323 23.7624 0
2 52.6444 23.5268 0
1 53.7808 24.9501 0
1 55.5751 21.7815 0
1 59.1981 21.8091 0
2 55.5855 25.1857 0
1 56.691 23.7418 0
2 58.5099 23.5021 0
1 59.6227 24.9417 0
1 61.4264 21.8084 0
1 65.0506 21.7923 0
2 61.447 25.1716 0
1 62.5539 23.7578 0
2 64.3695 23.4863 0
1 65.4899 24.9631 0
1 67.2964 21.7969 0
1 70.9169 21.8177 0
2 67.2969 25.1942 0
1 68.4211 23.7319 0
2 70.2461 23.5048 0
1 71.3505 24.9278 0
1 73.1116 21.7912 0
1 76.747 21.7818 0
2 73.1506 25.1879 0
1 74.2492 23.728 0
2 76.0477 23.457 0
1 77.1849 24.8976 0
1 78.9663 21.8195 0
1 82.5976 21.8033 0
2 78.9869 25.1655 0
1 80.1327 23.7631 0
2 81.9113 23.5103 0
1 83.0567 24.9606 0
1 84.8557 21.8171 0
1 88.4644 21.8179 0
2 84.8262 25.2127 0
1 85.9665 23.766 0
2 87.7866 23.5241 0
1 88.8819 24.9548 0
2 90.7003 25.2058 0
1 3.58739 26.8893 0
1 4.02017 30.004 0
1 5.84689 26.8893 0
1 9.46154 26.881 0
2 5.83477 30.2608 0
1 6.95709 28.8412 0
2 8.77584 28.5825 0
1 9.9052 30.0202 0
1 11.6854 26.8567 0
1 15.2969 26.891 0
2 11.688 30.2429 0
1 12.806 28.8188 0
2 14.6031 28.5767 0
1 15.711 30.006 0
1 17.5453 26.8738 0
1 21.1171 26.8602 0
2 17.5074 30.2521 0
1 18.6189 28.8031 0
2 20.4009 28.5615 0
1 21.5386 30.0074 0
1 23.3663 26.8665 0
1 26.972 26.8686 0
2 23.3736 30.2752 0
1 24.4849 28.8179 0
2 26.2911 28.5676 0
1 27.4256 30.0056 0
1 29.2069 26.8974 0
1 32.8414 26.8787 0
2 29.2319 30.261 0
1 30.3555 28.8186 0
2 32.1606 28.5729 0
1 33.2667 30.0072 0
1 35.0831 26.9109 0
1 38.7089 26.8783 0
2 35.0896 30.2745 0
1 36.2117 28.862 0
2 38.0044 28.5833 0
1 39.1403 30.0028 0
1 40.9376 26.8786 0
1 44.5487 26.8998 0
2 40.9494 30.2567 0
1 42.0963 28.8127 0
2 43.8823 28.5666 0
1 44.9862 29.9947 0
1 46.779 26.8759 0
1 50.4021 26.8327 0
2 46.7891 30.2442 0
1 47.892 28.7839 0
2 49.6907 28.5174 0
1 50.8247 29.9813 0
1 52.6238 26.8512 0
1 56.2658 26.8688 0
2 52.6577 30.2544 0
1 53.7549 28.8089 0
2 55.5658 28.5799 0
1 56.6813 30.0166 0
1 58.5044 26.8787 0
1 62.1401 26.844 0
2 58.4979 30.246 0
1 59.6377 28.823 0
2 61.4367 28.5776 0
1 62.5425 30.024 0
1 64.3638 26.895 0
1 67.9894 26.8542 0
2 64.3533 30.2806 0
1 65.4711 28.8176 0
2 67.2989 28.5591 0
1 68.4148 30.0108 0
1 70.1975 26.8581 0
1 73.8235 26.8906 0
2 70.2027 30.2813 0
1 71.2932 28.8345 0
2 73.1196 28.5943 0
1 74.2389 30.022 0
1 76.05 26.8688 0
1 79.6764 26.885 0
2 76.0549 30.2536 0
1 77.1893 28.8205 0
2 78.9913 28.5869 0
1 80.0955 30.0179 0
1 81.9155 26.8665 0
1 85.5136 26.9078 0
2 81.885 30.2549 0
1 83.0304 28.826 0
2 84.8253 28.5951 0
1 85.9473 30.0305 0
1 87.7471 26.8854 0
2 87.7567 30.2726 0
1 88.8919 28.8278 0
2 90.714 28.5683 0
1 90.6999 31.9616 0
1 6.49598 31.9542 0
1 3.99104 33.9029 0
2 5.81644 33.6474 0
1 6.93933 35.0904 0
1 8.72506 31.9411 0
1 12.37 31.9399 0
2 8.748 35.3474 0
1 9.87908 33.9031 0
2 11.6861 33.6296 0
1 12.8082 35.0742 0
1 14.6008 31.9614 0
1 18.2004 31.9491 0
2 14.5903 35.3143 0
1 15.7187 33.8923 0
2 17.5037 33.6453 0
1 18.6108 35.0709 0
1 20.4404 31.9813 0
1 24.081 31.9444 0
2 20.4397 35.3391 0
1 21.5872 33.896 0
2 23.3904 33.6231 0
1 24.5103 35.0727 0
1 26.3295 31.9774 0
1 29.9138 31.9647 0
2 26.3001 35.3503 0
1 27.4214 33.9165 0
2 29.2385 33.6561 0
1 30.3576 35.108 0
1 32.1401 31.9696 0
1 35.7585 31.9521 0
2 32.1608 35.3629 0
1 33.254 33.9086 0
2 35.0857 33.6404 0
1 36.2116 35.0851 0
1 37.9883 31.9286 0
1 41.6198 31.933 0
2 38.0053 35.343 0
1 39.1537 33.872 0
2 40.9328 33.635 0
1 42.0557 35.091 0
1 43.8729 31.9269 0
1 47.4811 31.934 0
2 43.8577 35.3185 0
1 44.98 33.8915 0
2 46.8096 33.6577 0
1 47.9226 35.0881 0
1 49.7063 31.9449 0
1 53.3213 31.9508 0
2 49.714 35.3295 0
1 50.8236 33.8938 0
2 52.64 33.6421 0
1 53.7518 35.0987 0
1 55.5641 31.9612 0
1 59.1819 31.9391 0
2 55.5911 35.3538 0
1 56.6805 33.889 0
2 58.4967 33.643 0
1 59.6061 35.1034 0
1 61.4182 31.9647 0
1 65.0406 31.9631 0
2 61.4173 35.3355 0
1 62.5388 33.897 0
2 64.3343 33.6603 0
1 65.4461 35.1085 0
1 67.2729 31.9419 0
1 70.8893 31.9906 0
2 67.244 35.362 0
1 68.3764 33.9373 0
2 70.2026 33.6654 0
1 71.3168 35.1081 0
1 73.1179 31.9541 0
1 76.7149 31.9685 0
2 73.1308 35.3454 0
1 74.2314 33.9057 0
2 76.0279 33.6523 0
1 77.1631 35.0971 0
1 78.977 31.9665 0
1 82.5526 31.9605 0
2 78.9757 35.3509 0
1 80.1067 33.9343 0
2 81.8988 33.6786 0
1 83.0499 35.1097 0
1 84.8307 31.9899 0
1 88.4329 31.9703 0
2 84.8411 35.3679 0