225
Atoms. Timestep: 100000
2 -0.391991 20.8299 0
2 1.87508 21.8326 0
2 38.2168 -0.27365 0
1 0.835817 0.921018 0
2 1.88056 2.41021 0
2 3.3595 21.7801 0
2 7.45137 21.8322 0
1 3.64988 2.20095 0
2 4.30507 0.5211 0
1 6.17929 0.595356 0
2 7.02569 2.34844 0
2 8.96161 22.0529 0
2 12.3898 21.9193 0
1 8.80539 2.3373 0
2 9.66003 0.825033 0
1 11.4264 0.883034 0
2 12.2271 2.53235 0
2 13.8981 21.9879 0
2 17.494 21.9222 0
1 13.9859 2.44331 0
2 14.7171 0.798831 0
1 16.5297 0.86682 0
2 17.359 2.54695 0
2 19.0266 21.9827 0
2 22.5988 21.912 0
1 19.1119 2.42336 0
2 19.8387 0.787278 0
1 21.6716 0.875719 0
2 22.5319 2.50726 0
2 24.1312 21.9841 0
2 27.6712 21.843 0
1 24.2866 2.42371 0
2 24.9778 0.785217 0
1 26.825 0.847291 0
2 27.771 2.44428 0
2 29.1926 21.8161 0
2 34.2964 0.92647 0
1 29.6185 2.30455 0
2 30.1977 0.534307 0
1 32.1945 0.347461 0
2 32.8571 2.46179 0
2 35.3776 -0.0354913 0
1 34.6291 2.68793 0
2 36.8427 0.395295 0
1 37.5788 2.17188 0
2 -0.256428 3.73944 0
2 -0.457457 6.69887 0
2 1.25657 3.73163 0
2 4.78749 3.67666 0
1 1.29453 6.66285 0
2 2.06669 5.04683 0
1 3.89928 5.19027 0
2 4.68981 6.86898 0
2 6.29757 3.66537 0
2 9.94261 3.84604 0
1 6.43131 6.79957 0
2 7.13426 5.10195 0
1 9.03562 5.32682 0
2 9.83503 6.98769 0
2 11.4875 3.82843 0
2 15.0954 3.91803 0
1 11.5951 6.91098 0
2 12.3257 5.21459 0
1 14.1819 5.4256 0
2 15.0141 7.05509 0
2 16.652 3.87275 0
2 20.284 3.89378 0
1 16.7923 6.92678 0
2 17.5042 5.25505 0
1 19.3774 5.40873 0
2 20.1995 7.0416 0
2 21.8329 3.85107 0
2 25.4809 3.87186 0
1 21.9839 6.87696 0
2 22.6767 5.21338 0
1 24.5816 5.40517 0
2 25.4073 7.01414 0
2 27.0662 3.80098 0
2 30.6856 3.843 0
1 27.2111 6.85049 0
2 27.9445 5.1708 0
1 29.824 5.37273 0
2 30.6834 7.03865 0
2 32.1699 3.78234 0
2 36.1875 3.71146 0
1 32.5406 7.0059 0
2 33.162 5.2633 0
1 35.237 5.69498 0
2 36.1234 7.72617 0
1 37.6282 5.18111 0
2 37.7397 7.92266 0
2 2.40208 8.17686 0
2 -0.458981 9.27899 0
1 1.43127 9.65476 0
2 2.18945 11.2813 0
2 3.94594 8.18744 0
2 7.53976 8.30383 0
1 3.98221 11.2387 0
2 4.7419 9.5669 0
1 6.60348 9.79612 0
2 7.38592 11.4423 0
2 9.0951 8.29438 0
2 12.7273 8.39903 0
1 9.16456 11.3435 0
2 9.91361 9.69167 0
1 11.7926 9.90434 0
2 12.6089 11.5299 0
2 14.2847 8.37893 0
2 17.9187 8.40572 0
1 14.3843 11.4249 0
2 15.1177 9.75862 0
1 16.9677 9.91335 0
2 17.7798 11.5365 0
2 19.4739 8.38038 0
2 23.1145 8.35449 0
1 19.5814 11.3952 0
2 20.3009 9.73295 0
1 22.1582 9.86867 0
2 22.9657 11.5014 0
2 24.6755 8.33028 0
2 28.3471 8.34351 0
1 24.7657 11.3377 0
2 25.5025 9.68239 0
1 27.3621 9.84184 0
2 28.1411 11.4941 0
2 29.8945 8.36174 0
2 33.6234 8.65052 0
1 29.9094 11.428 0
2 30.6964 9.7928 0
1 32.5637 10.0442 0
2 33.2126 11.7924 0
2 35.1696 8.89826 0
1 34.9051 12.0945 0
2 35.778 10.352 0
1 37.6079 10.7738 0
2 -0.147759 12.4902 0
2 -0.440355 15.5266 0
2 1.40579 12.5675 0
2 5.07741 12.7465 0
1 1.36949 15.5815 0
2 2.17869 13.9683 0
1 4.05071 14.236 0
2 4.87621 15.852 0
2 6.63047 12.7572 0
2 10.2742 12.8589 0
1 6.65795 15.7736 0
2 7.44088 14.1314 0
1 9.28277 14.3334 0
2 10.1256 15.9588 0
2 11.8639 12.8662 0
2 15.5011 12.8837 0
1 11.9508 15.8977 0
2 12.6725 14.2456 0
1 14.5535 14.4158 0
2 15.4344 15.986 0
2 17.0411 12.8568 0
2 20.6914 12.867 0
1 17.1864 15.9077 0
2 17.8981 14.2308 0
1 19.7646 14.3827 0
2 20.5944 15.9924 0
2 22.2333 12.8327 0
2 25.8344 12.8354 0
1 22.3455 15.9216 0
2 23.061 14.1998 0
1 24.8795 14.3347 0
2 25.6925 15.9595 0
2 27.3872 12.8216 0
2 30.9649 12.9762 0
1 27.4412 15.881 0
2 28.1965 14.2002 0
1 30.0537 14.4291 0
2 30.816 16.0781 0
2 32.4419 13.019 0
2 36.7069 12.3054 0
1 32.6072 16.0582 0
2 33.3095 14.4054 0
1 35.2685 14.5846 0
2 36.084 16.5952 0
1 37.6594 13.9698 0
2 37.7334 16.7446 0
2 2.54654 17.1343 0
2 -0.448967 18.0657 0
1 1.63035 18.7428 0
2 1.03495 20.5994 0
2 4.12464 17.1425 0
2 7.79475 17.2706 0
1 3.87646 20.0213 0
2 4.89053 18.5186 0
1 6.78116 18.7672 0
2 7.79939 20.2835 0
2 9.40674 17.2616 0
2 13.2015 17.3688 0
1 9.79281 20.3864 0
2 10.3227 18.5875 0
1 12.5064 18.9811 0
2 11.653 20.6037 0
2 14.7257 17.2883 0
2 18.372 17.3456 0
1 14.7849 20.3699 0
2 15.5711 18.6173 0
1 17.6332 18.958 0
2 16.7534 20.615 0
2 19.8971 17.2796 0
2 23.4899 17.3358 0
1 19.8719 20.3857 0
2 20.6907 18.6184 0
1 22.7238 18.9512 0
2 21.8517 20.5887 0
2 24.9807 17.2682 0
2 28.4959 17.3198 0
1 24.932 20.3536 0
2 25.7508 18.615 0
1 27.648 18.8816 0
2 26.8634 20.565 0
2 30.0077 17.3262 0
2 33.5751 17.6536 0
1 29.6187 20.1137 0
2 30.6729 18.6939 0
1 32.4215 19.0533 0
2 33.0743 20.8417 0
2 35.1249 17.8299 0
1 34.841 20.8203 0
2 35.7373 19.2318 0
1 37.4946 19.4467 0
