6400
Atoms. Timestep: 32500000
1 51.849 72.776 0
1 38.6921 -17.0819 0
1 -18.1046 23.2247 0
1 58.262 49.2998 0
1 26.7096 13.5622 0
1 53.8495 55.9136 0
1 1.40336 118.598 0
1 224.108 133.789 0
1 12.4768 56.2591 0
1 54.5171 -1.69611 0
1 -29.1979 76.5466 0
1 -18.4915 136.132 0
1 23.0147 74.2285 0
1 168.716 55.0578 0
1 58.7433 106.928 0
1 185.965 135.802 0
1 118.48 22.849 0
1 115.448 18.0564 0
1 108.28 51.9417 0
1 123.886 28.9346 0
1 127.038 29.345 0
1 119.554 -13.3562 0
1 164.501 82.2974 0
1 163.149 -6.43821 0
1 78.8629 94.3582 0
1 164.713 73.3171 0
1 41.4793 71.3941 0
1 28.4877 34.0327 0
1 225.273 -0.648528 0
1 28.6645 118.062 0
1 -7.71753 74.0645 0
1 194.511 16.0929 0
1 228.838 57.9192 0
1 80.8739 -15.5746 0
1 96.4151 103.827 0
1 31.08 35.7307 0
1 28.9426 -8.23573 0
1 28.2311 -12.6761 0
1 -1.09355 27.2169 0
1 147.817 49.4658 0
1 121.998 -13.1534 0
1 243.19 5.36681 0
1 199.695 28.68 0
1 47.7687 76.6582 0
1 40.0324 111.448 0
1 19.5632 123.417 0
1 91.7993 21.3251 0
1 68.0056 2.50877 0
1 34.7143 15.1344 0
1 239.274 -10.0718 0
1 93.2249 -4.36279 0
1 140.124 74.8861 0
1 155.699 93.9947 0
1 58.5658 -14.5012 0
1 112.455 43.2279 0
1 111.979 101.444 0
1 44.0888 138.599 0
1 -21.6365 131.229 0
1 189.633 58.6697 0
1 113.772 66.2096 0
1 -24.2207 78.8632 0
1 144.531 61.9022 0
1 17.8607 35.361 0
1 220.919 21.9061 0
1 -22.924 123.091 0
1 169.105 59.0082 0
1 135.366 111.646 0
1 115.713 108.345 0
1 68.0311 67.6933 0
1 173.342 125.662 0
1 123.891 102.791 0
1 118.936 101.84 0
1 179.505 48.1998 0
1 196.196 -8.60222 0
1 3.12658 94.5894 0
1 89.1966 38.4199 0
1 21.0126 -6.27625 0
1 73.8285 0.0838429 0
1 135.051 125.952 0
1 19.6456 96.8442 0
1 -18.0012 -12.2466 0
1 69.4254 8.60778 0
1 212.726 15.9998 0
1 129.777 19.3054 0
1 145.74 71.1396 0
1 -26.4039 -16.0578 0
1 15.6251 86.3975 0
1 26.8167 137.482 0
1 33.8765 17.569 0
1 62.5186 105.637 0
1 114.324 23.8001 0
1 64.6653 131.402 0
1 91.7441 83.6038 0
1 129.191 137.82 0
1 -17.216 29.7722 0
1 53.1588 53.324 0
1 9.41793 139.311 0
1 132.66 82.1939 0
1 192.736 -13.9063 0
1 65.1047 81.3633 0
1 230.204 7.15915 0
1 190.101 81.0782 0
1 153.863 64.8484 0
1 54.5248 51.2753 0
1 -25.8596 40.1792 0
1 99.4927 72.1367 0
1 40.1384 130.817 0
1 21.2727 134.435 0
1 105.407 -1.10634 0
1 161.434 51.7788 0
1 4.87786 72.2686 0
1 154.586 91.1127 0
1 167.181 38.6502 0
1 -13.7337 68.4584 0
1 22.2941 1.30232 0
1 106.416 120.266 0
1 149.831 93.0114 0
1 184.715 27.1624 0
1 -15.1773 86.2174 0
1 49.0596 -1.9575 0
1 -15.5843 73.3704 0
1 19.5003 40.725 0
1 97.8428 117.298 0
1 175.107 54.7485 0
1 15.9927 22.8744 0
1 72.1262 63.8467 0
1 38.9929 61.7804 0
1 198.162 -1.5491 0
1 -5.05131 19.6581 0
1 33.3811 114.029 0
1 138.2 43.2985 0
1 201.941 27.5228 0
1 50.3426 107.147 0
1 4.44005 42.8416 0
1 58.0566 75.8868 0
1 141.055 133.158 0
1 56.6318 -1.42437 0
1 47.1912 -14.009 0
1 244.261 -16.8493 0
1 128.588 112.861 0
1 74.7765 86.2868 0
1 88.1697 101.092 0
1 116.548 -14.227 0
1 221.928 33.7668 0
1 131.761 4.25197 0
1 101.46 17.7372 0
1 121.773 124.544 0
1 191.583 -12.1331 0
1 118.101 60.1444 0
1 37.6104 92.3483 0
1 112.679 33.8364 0
1 99.3851 22.3713 0
1 2.12767 -12.869 0
1 101.485 -7.00708 0
1 81.3924 100.985 0
1 -7.4057 83.0056 0
1 -11.5144 26.0051 0
1 227.65 14.6559 0
1 221.128 133.605 0
1 -16.1505 101.948 0
1 -20.6416 77.041 0
1 27.2229 87.8698 0
1 33.0307 30.1366 0
1 37.4456 111.265 0
1 165.285 -4.79694 0
1 128.087 129.545 0
1 -8.58243 124.003 0
1 11.7278 54.0445 0
1 17.4774 37.6466 0
1 64.8961 57.5781 0
1 -2.06663 14.8734 0
1 119.885 116.882 0
1 60.2658 -1.68671 0
1 16.4575 127.494 0
1 199.661 137.064 0
1 124.555 10.6098 0
1 47.4666 123.947 0
1 16.2634 80.6859 0
1 68.1016 113.736 0
1 10.1572 127.392 0
1 -13.7737 102.979 0
1 228.36 8.31732 0
1 121.608 25.063 0
1 105.671 48.2865 0
1 76.474 -2.41165 0
1 1.66942 60.7352 0
1 53.4502 61.1987 0
1 228.103 75.3013 0
1 -1.86386 102.704 0
1 170.205 112.228 0
1 119.683 62.7003 0
1 108.685 101.314 0
1 87.4754 118.52 0
1 6.10423 5.50948 0
1 99.4868 120.557 0
1 -20.2768 138.81 0
1 174.199 71.074 0
1 212.961 96.8809 0
1 208.462 11.9034 0
1 40.9017 127.325 0
1 20.2091 104.633 0
1 165.373 59.9787 0
1 38.1752 82.0222 0
1 1.74849 25.4727 0
1 229.919 31.5684 0
1 242.714 35.1522 0
1 243.296 28.8919 0
1 -23.8036 96.8364 0
1 34.8153 107.534 0
1 38.2143 68.7725 0
1 43.0013 112.626 0
1 60.73 136.746 0
1 169.572 93.3799 0
1 228.006 72.9307 0
1 193.665 56.7068 0
1 13.5154 -3.71985 0
1 81.3328 118.486 0
1 111.337 4.4388 0
1 228.904 44.8314 0
1 107.273 122.086 0
1 134.542 117.419 0
1 55.1506 59.121 0
1 153.51 106.297 0
1 83.5981 56.9937 0
1 144.381 103.765 0
1 223.403 126.592 0
1 -23.3696 99.9904 0
1 102.093 48.4677 0
1 229.721 83.3669 0
1 74.7636 106.933 0
1 118.381 -7.08339 0
1 137.376 75.0675 0
1 80.7358 83.2332 0
1 196.469 138.413 0
1 70.564 97.894 0
1 157.432 23.4731 0
1 -1.54832 24.5463 0
1 139.802 107.456 0
1 226.346 3.4656 0
1 46.0972 39.6502 0
1 -9.15458 77.8167 0
1 4.5392 26.6789 0
1 206.515 -7.9322 0
1 241.919 32.3636 0
1 190.443 34.4354 0
1 10.532 116.254 0
1 99.5846 31.4052 0
1 69.7986 127.244 0
1 244.187 31.0944 0
1 39.5881 49.0552 0
1 78.2308 -12.9523 0
1 244.506 98.0422 0
1 123.318 37.2062 0
1 38.174 119.135 0
1 131.869 35.6574 0
1 25.2646 28.4032 0
1 159.546 115.847 0
1 72.437 59.1571 0
1 -17.7848 31.9751 0
1 146.039 135.37 0
1 174.237 73.4636 0
1 -9.34484 101.138 0
1 30.6773 128.788 0
1 120.697 -9.14646 0
1 88.5735 1.83965 0
1 138.288 55.3757 0
1 76.7518 102.341 0
1 244.073 95.4414 0
1 92.6515 2.28122 0
1 51.634 57.1144 0
1 60.5968 -5.13234 0
1 119.676 111.909 0
1 -5.27027 5.99313 0
1 123.385 71.5589 0
1 7.74409 28.009 0
1 199.793 -9.44531 0
1 126.491 96.8801 0
1 53.8701 89.8484 0
1 -17.5387 81.3997 0
1 107.787 79.7533 0
1 117.002 29.6629 0
1 98.5194 -14.5616 0
1 -18.5656 52.0036 0
1 19.0346 -14.1543 0
1 38.3303 89.2874 0
1 38.4357 75.4156 0
1 72.5954 117.187 0
1 47.3627 98.444 0
1 81.7541 131.723 0
1 62.6074 78.586 0
1 235.127 -5.64488 0
1 15.1942 139.627 0
1 91.1648 -14.7469 0
1 53.4356 -3.73943 0
1 185.189 5.745 0
1 69.5468 63.5892 0
1 -10.6235 122.931 0
1 -0.889361 78.3119 0
1 92.849 72.5091 0
1 32.8769 20.7774 0
1 126.456 -10.6969 0
1 228.956 -17.2199 0
1 50.9103 54.1717 0
1 119.71 85.2005 0
1 78.6998 54.7313 0
1 131.663 14.1337 0
1 193.586 33.6034 0
1 -3.52328 77.9352 0
1 44.7798 24.5408 0
1 137.671 126.726 0
1 7.0981 75.7625 0
1 4.08196 62.3678 0
1 152.453 87.5585 0
1 35.8162 20.2039 0
1 161.401 109.579 0
1 -6.21322 112.079 0
1 78.6405 58.1873 0
1 134.889 81.8719 0
1 7.88842 38.0164 0
1 240.449 5.19501 0
1 218.002 123.972 0
1 28.8585 48.0179 0
1 57.4722 34.0491 0
1 -13.6634 122.238 0
1 194.999 9.32295 0
1 185.334 127.626 0
1 48.6319 63.6557 0
1 235.957 49.6153 0
1 79.7265 107.133 0
1 142.115 140.317 0
1 -29.7403 101.089 0
1 34.1147 97.2835 0
1 72.55 113.059 0
1 71.185 133.246 0
1 199.958 19.6621 0
1 13.3491 114.865 0
1 48.3126 4.01149 0
1 129.6 0.290774 0
1 -19.9327 45.0202 0
1 141.358 129.3 0
1 47.8565 21.2276 0
1 115.787 6.65161 0
1 36.378 84.9536 0
1 158.739 51.6936 0
1 94.8643 -17.2665 0
1 230.224 46.5785 0
1 24.7299 71.7678 0
1 -12.5845 100.781 0
1 -2.48814 66.9011 0
1 86.6408 0.250915 0
1 -24.9593 114.298 0
1 183.611 -10.4094 0
1 4.63198 88.1638 0
1 229.708 10.2496 0
1 202.391 14.3866 0
1 115.281 50.8831 0
1 13.0975 11.899 0
1 -30.2647 -18.0302 0
1 174.312 57.3013 0
1 -6.63516 120.625 0
1 93.5748 87.814 0
1 186.142 8.41623 0
1 109.615 -2.55606 0
1 235.664 127.414 0
1 -2.93601 47.9363 0
1 -11.7717 140.921 0
1 -12.757 86.4683 0
1 -3.73448 4.04226 0
1 46.533 119.399 0
1 45.0498 122.594 0
1 116.285 68.2047 0
1 153.429 94.8231 0
1 -10.5547 8.89431 0
1 13.85 37.6606 0
1 63.0612 6.34891 0
1 62.7097 93.6763 0
1 57.3782 109.552 0
1 76.8002 69.5817 0
1 111.897 30.9457 0
1 116.372 63.7748 0
1 141.187 122.019 0
1 72.5274 35.0545 0
1 151.253 115.981 0
1 200.332 24.472 0
1 1.05188 4.11727 0
1 -20.1593 85.8614 0
1 8.36832 141.483 0
1 187.177 21.9933 0
1 51.9538 62.7844 0
1 180.921 57.3361 0
1 63.1703 46.6418 0
1 93.0464 103.325 0
1 173.457 113.154 0
1 142.355 19.085 0
1 186.525 25.4531 0
1 169.657 51.5955 0
1 120.988 18.0772 0
1 -18.8965 95.1814 0
1 37.3967 38.1341 0
1 70.973 41.2836 0
1 41.4012 14.5212 0
1 73.2428 -2.20951 0
1 133.855 74.5967 0
1 44.8977 53.6969 0
1 25.8159 -3.86777 0
1 42.0127 124.379 0
1 45.9517 95.7229 0
1 124.833 107.588 0
1 237.656 -14.5673 0
1 131.835 62.0659 0
1 72.8632 88.9355 0
1 76.1677 76.3011 0
1 77.3607 51.661 0
1 113.924 75.2137 0
1 97.1169 100.884 0
1 -25.8771 136.85 0
1 95.1973 35.2711 0
1 125.558 -5.27113 0
1 -11.6523 127.042 0
1 199.293 -13.0418 0
1 96.0459 19.7029 0
1 131.911 47.9163 0
1 54.8011 96.2143 0
1 158.942 66.5462 0
1 175.766 103.967 0
1 63.9594 120.989 0
1 -1.52816 51.7765 0
1 14.7792 -2.09703 0
1 -20.1627 100.063 0
1 16.8541 141.506 0
1 42.6108 121.97 0
1 37.908 98.9134 0
1 -19.6255 90.8445 0
1 -16.5429 16.345 0
1 -9.18721 129.021 0
1 242.883 67.066 0
1 6.74697 128.577 0
1 76.416 7.68198 0
1 30.9726 27.8052 0
1 187.064 29.8204 0
1 42.136 131.107 0
1 168.028 132.7 0
1 34.766 -15.6388 0
1 28.4807 102.482 0
1 -29.5304 60.7983 0
1 83.9729 38.9551 0
1 62.0329 132.796 0
1 121.244 28.9128 0
1 62.1452 4.35362 0
1 -20.8862 10.7324 0
1 16.8496 112.556 0
1 64.9491 35.1959 0
1 10.2552 96.3946 0
1 121.654 -4.64928 0
1 190.055 134.332 0
1 135.208 84.5936 0
1 1.13782 141.386 0
1 146.273 99.5055 0
1 238.194 21.7421 0
1 8.73813 18.5863 0
1 70.9666 27.1327 0
1 92.458 29.1569 0
1 79.5789 52.4448 0
1 46.4491 84.4664 0
1 172.587 104.569 0
1 31.4551 45.6393 0
1 101.553 94.5454 0
1 141.661 111.889 0
1 183.492 11.8547 0
1 193.069 133.713 0
1 229.234 -5.73042 0
1 3.55396 3.3582 0
1 85.651 2.5668 0
1 30.8524 139.73 0
1 119.857 -16.1082 0
1 181.38 134.596 0
1 -10.2611 -0.560069 0
1 127.189 127.372 0
1 1.52717 42.7758 0
1 243.121 79.0798 0
1 209.874 34.0203 0
1 21.2041 71.5668 0
1 63.9541 75.815 0
1 231.855 73.3211 0
1 186 122.563 0
1 178.181 51.9143 0
1 56.2723 8.27424 0
1 9.41397 132.784 0
1 82.1721 62.442 0
1 124.369 -3.18773 0
1 66.9425 69.8174 0
1 56.0866 40.7628 0
1 53.7388 86.8099 0
1 130.383 54.2496 0
1 62.7246 8.99507 0
1 219.859 10.1976 0
1 7.18535 66.8637 0
1 147.53 84.8752 0
1 118.53 76.2031 0
1 188.176 14.4178 0
1 105.554 113.859 0
1 28.724 92.9192 0
1 227.58 137.228 0
1 128.343 88.0534 0
1 82.0511 28.9953 0
1 233.933 136.133 0
1 153.756 82.9051 0
1 -30.7179 124.751 0
1 103.313 101.511 0
1 134.819 -5.88675 0
1 165.758 119.061 0
1 -1.10509 135.178 0
1 55.121 -15.05 0
1 -29.8834 136.311 0
1 149.442 136.449 0
1 109.253 96.6868 0
1 192.77 6.59926 0
1 44.6448 93.5299 0
1 116.261 81.7555 0
1 30.8277 109.238 0
1 14.9905 97.8896 0
1 223.961 24.8954 0
1 195.92 134.621 0
1 25.1487 23.4817 0
1 53.2861 127.794 0
1 18.8927 74.9894 0
1 95.4754 24.2151 0
1 17.4966 46.3371 0
1 -11.2802 106.942 0
1 43.1225 119.632 0
1 -5.70577 109.469 0
1 -21.2609 8.28614 0
1 21.8975 28.5464 0
1 36.958 28.2736 0
1 61.5032 96.7477 0
1 110.267 92.0132 0
1 161.807 102.074 0
1 96.1433 3.4049 0
1 105.626 23.7502 0
1 113.741 58.8282 0
1 95.9289 77.0283 0
1 6.97393 16.742 0
1 163.501 58.3679 0
1 148.009 58.0364 0
1 130.655 95.0387 0
1 132.712 63.9317 0
1 -9.40557 135.687 0
1 176.922 114.106 0
1 141.85 5.07788 0
1 2.28209 -4.11477 0
1 209.892 10.1745 0
1 127.356 61.3372 0
1 -14.8209 40.8613 0
1 18.2605 21.6196 0
1 87.5255 96.9363 0
1 174.734 59.4968 0
1 150.758 80.7846 0
1 191.025 50.6496 0
1 163.863 54.7098 0
1 73.5385 19.1672 0
1 193.504 2.3266 0
1 -5.34897 54.0237 0
1 -7.45184 60.1785 0
1 -20.7537 26.7102 0
1 -4.106 -13.0026 0
1 153.823 -16.6893 0
1 12.111 -5.78769 0
1 -14.005 31.1734 0
1 231.993 -15.9043 0
1 22.5621 106.421 0
1 -11.9875 14.7864 0
1 -27.4825 32.298 0
1 -20.8336 2.61124 0
1 74.3992 15.4174 0
1 113.232 52.093 0
1 144.21 55.1242 0
1 70.6668 105.671 0
1 57.3067 64.9308 0
1 11.8085 103.302 0
1 38.0904 117.097 0
1 -26.727 63.5076 0
1 188.831 -0.647971 0
1 238.443 -16.3703 0
1 -20.0181 73.0196 0
1 140.102 48.5975 0
1 181.38 0.563697 0
1 88.3899 80.3309 0
1 28.435 44.0625 0
1 34.4484 35.1687 0
1 5.04689 81.058 0
1 175.166 134.993 0
1 -8.94527 105.684 0
1 73.6595 67.6 0
1 41.3524 65.0386 0
1 83.3316 59.1861 0
1 11.9054 39.5028 0
1 72.9335 104.035 0
1 97.8778 15.4202 0
1 205.123 5.79395 0
1 190.315 -10.1927 0
1 8.14035 116.923 0
1 9.95848 6.88354 0
1 38.8527 71.2781 0
1 10.7661 101.221 0
1 30.743 67.895 0
1 89.5336 99.4253 0
1 69.5234 49.5061 0
1 -9.02136 52.115 0
1 90.0007 17.4002 0
1 149.469 83.3727 0
1 121.141 114.603 0
1 118.346 86.9081 0
1 -15.6658 79.6316 0
1 215.674 64.35 0
1 21.1513 116.838 0
1 17.493 98.3299 0
1 187.707 -6.2005 0
1 175.579 75.7665 0
1 207.372 139.018 0
1 38.7443 -13.8429 0
1 64.4471 111.406 0
1 66.5052 98.4611 0
1 -26.4339 35.7198 0
1 77.9473 24.7439 0
1 180.011 107.756 0
1 40.9084 104.83 0
1 125.828 19.4655 0
1 109.415 122.963 0
1 176.917 59.2785 0
1 240.71 -13.0132 0
1 141.932 108.546 0
1 57.821 36.9375 0
1 29.5476 124.645 0
1 111.438 97.3681 0
1 3.48074 115.952 0
1 -29.9408 27.4258 0
1 -9.9993 44.3629 0
1 -15.6835 110.378 0
1 170.151 42.4138 0
1 14.731 137.346 0
1 70.632 -9.98479 0
1 -30.2463 24.9583 0
1 77.0961 33.8105 0
1 -27.7445 124.388 0
1 -7.77913 118.515 0
1 -9.59099 113.302 0
1 132.61 109.923 0
1 21.7593 124.939 0
1 50.6576 114.677 0
1 128.18 -3.08069 0
1 23.8217 34.427 0
1 52.2482 105.662 0
1 171.909 124.321 0
1 152.043 -17.6712 0
1 91.1616 88.0934 0
1 76.6005 95.7335 0
1 143.416 71.6672 0
1 186.73 77.0983 0
1 96.9026 0.0837011 0
1 51.7881 125.484 0
1 51.059 135.485 0
1 12.1935 72.8093 0
1 47.1478 9.92966 0
1 94.5678 30.4133 0
1 6.347 -2.47019 0
1 188.12 63.9177 0
1 25.2084 42.3477 0
1 95.2071 21.9901 0
1 -24.4614 106.489 0
1 232.67 8.10228 0
1 139.474 78.5892 0
1 111.483 103.787 0
1 137.529 82.3044 0
1 173.143 131.014 0
1 230.545 76.7184 0
1 153.283 14.4045 0
1 149.737 54.8132 0
1 59.9371 5.65049 0
1 244.684 135.212 0
1 -6.98032 51.8802 0
1 38.7809 23.3823 0
1 235.741 96.0278 0
1 217.515 10.6094 0
1 55.7104 76.0884 0
1 156.839 83.7019 0
1 126.107 -0.676339 0
1 26.1673 3.83628 0
1 67.7429 93.1697 0
1 31.748 -7.47387 0
1 62.747 -13.5904 0
1 57.6432 136.487 0
1 -2.88272 95.8441 0
1 109.797 42.8364 0
1 44.0439 60.242 0
1 132.303 55.7845 0
1 40.2189 31.6788 0
1 44.9824 68.1938 0
1 63.9143 -16.9195 0
1 129.947 72.1694 0
1 129.906 83.8919 0
1 178.182 11.8793 0
1 211.307 31.0428 0
1 131.391 44.7583 0
1 91.5904 113.717 0
1 68.4164 135.251 0
1 -10.4569 55.6297 0
1 166.7 50.4303 0
1 109.024 128.242 0
1 152.28 124.538 0
1 -24.5118 81.0277 0
1 151.068 85.3719 0
1 -22.0741 45.9418 0
1 47.5669 79.8763 0
1 117.013 93.2062 0
1 172.169 134.204 0
1 -17.1375 132.065 0
1 -14.7369 43.7691 0
1 -4.11736 103.781 0
1 34.395 118.566 0
1 67.9976 36.0448 0
1 208.923 4.43922 0
1 164.97 109.182 0
1 137.801 135.24 0
1 137.191 47.5144 0
1 15.5086 48.5594 0
1 44.2556 90.3459 0
1 104.999 30.7801 0
1 44.3349 13.1608 0
1 190.771 28.0383 0
1 14.7549 118.527 0
1 163.141 107.731 0
1 20.5641 87.2328 0
1 17.2747 16.0309 0
1 55.9592 -12.5732 0
1 241.46 63.6506 0
1 147.164 47.2971 0
1 118.78 50.3502 0
1 149.8 71.2048 0
1 -12.3915 3.00861 0
1 29.4011 121.537 0
1 159.422 88.4799 0
1 -2.20519 84.1749 0
1 239.413 2.80806 0
1 121.308 136.811 0
1 127.921 125.501 0
1 68.8829 100.368 0
1 48.8094 42.0405 0
1 78.4249 138.35 0
1 223.187 -11.9622 0
1 131.173 91.5489 0
1 26.7496 -8.5551 0
1 -10.1244 47.6943 0
1 181.827 51.2217 0
1 -14.8136 107.517 0
1 210.385 28.7099 0
1 31.1827 95.5836 0
1 230.948 71.0259 0
1 -14.9447 -0.458244 0
1 35.121 90.1991 0
1 -26.9707 106.256 0
1 -2.27048 132.892 0
1 -24.2345 110.426 0
1 71.6158 4.16134 0
1 56.1637 69.3826 0
1 31.6943 39.3006 0
1 233.111 -0.264843 0
1 50.6885 92.6909 0
1 -12.7104 49.8567 0
1 63.9013 68.9088 0
1 170.083 56.6854 0
1 202.844 -9.18085 0
1 83.7981 19.8875 0
1 129.705 115.083 0
1 145.955 28.5735 0
1 238.323 18.1465 0
1 104.184 59.7792 0
1 195.592 4.82631 0
1 5.36372 55.6849 0
1 39.8089 73.641 0
1 216.216 8.77471 0
1 119.865 121.841 0
1 38.3839 57.6817 0
1 196.058 -15.3733 0
1 227.145 78.5175 0
1 -25.9085 126.684 0
1 50.2929 47.9184 0
1 119.186 82.2275 0
1 119.695 20.1801 0
1 129.27 62.7602 0
1 -25.6774 -2.00835 0
1 170.79 38.8502 0
1 228.547 42.4353 0
1 51.9731 15.2302 0
1 203.823 141.214 0
1 41.2036 102.225 0
1 56.9602 56.4756 0
1 233.143 -8.9244 0
1 -4.23067 -16.3477 0
1 71.5805 86.5952 0
1 -18.0612 72.824 0
1 8.11711 99.1337 0
1 196.859 13.743 0
1 153.258 112.163 0
1 14.0551 29.1831 0
1 55.4973 72.3353 0
1 39.4162 133.281 0
1 185.365 64.8206 0
1 43.9955 117.542 0
1 142.408 21.7515 0
1 63.1889 84.6159 0
1 22.2078 15.8752 0
1 72.5601 -16.9865 0
1 78.8586 39.8861 0
1 184.234 23.286 0
1 65.2646 90.9793 0
1 82.2468 94.4271 0
1 17.4565 63.2146 0
1 142.561 75.0954 0
1 91.8421 45.6551 0
1 224.737 35.3639 0
1 4.96251 -10.4629 0
1 2.50126 39.8439 0
1 176.882 108.643 0
1 138.711 45.6574 0
1 198.588 21.9653 0
1 41.6164 11.1671 0
1 182.221 71.1967 0
1 169.451 119.202 0
1 -18.9229 130.83 0
1 18.2555 138.492 0
1 185.055 72.7747 0
1 42.3915 36.3028 0
1 162.921 94.6034 0
1 230.976 13.9849 0
1 -18.2199 140.172 0
1 237.529 79.5867 0
1 230.379 121.507 0
1 206.628 -4.75598 0
1 118.597 10.2153 0
1 85.9626 104.139 0
1 -18.8271 -3.91811 0
1 160.025 106.431 0
1 119.109 27.809 0
1 -7.23284 97.129 0
1 69.3531 140.943 0
1 159.223 86.1257 0
1 -24.3356 9.04233 0
1 16.37 54.6896 0
1 -26.2699 101.242 0
1 48.8498 44.7669 0
1 170.531 87.2245 0
1 158.799 97.1824 0
1 -15.4177 34.5676 0
1 42.8563 128.011 0
1 127.989 54.6485 0
1 133.83 40.6955 0
1 73.6357 21.6699 0
1 65.9229 9.10758 0
1 66.144 88.0114 0
1 146.991 94.7088 0
1 227.948 65.483 0
1 172.054 80.6317 0
1 58.6771 -17.0503 0
1 56.4691 -10.1356 0
1 -7.98684 54.9612 0
1 122.415 107.644 0
1 115.565 104.065 0
1 164.297 111.098 0
1 74.8321 63.6084 0
1 -23.9361 134.136 0
1 122.194 135.008 0
1 237.405 47.5442 0
1 161.264 20.3496 0
1 116.375 25.3158 0
1 58.6416 -11.3848 0
1 115.089 130.612 0
1 33.9588 -11.6253 0
1 23.3156 103.234 0
1 184.75 20.1884 0
1 7.49187 56.3689 0
1 -8.33989 64.3512 0
1 181.133 11.2715 0
1 20.3026 37.6586 0
1 70.0786 39.0977 0
1 8.39759 -8.48196 0
1 114.657 55.9864 0
1 44.3617 15.5119 0
1 103.612 38.8558 0
1 138.137 139.658 0
1 192.199 141.124 0
1 36.767 34.8054 0
1 -20.1632 121.54 0
1 91.521 55.7299 0
1 109.707 24.9398 0
1 60.6528 48.1126 0
1 226.252 44.3493 0
1 93.6996 -7.30434 0
1 21.1426 98.7344 0
1 -4.35398 39.7089 0
1 46.0225 43.4654 0
1 59.6387 9.70323 0
1 -19.4178 80.2614 0
1 188.158 72.6317 0
1 93.1304 85.4708 0
1 -20.1184 21.5538 0
1 85.4315 82.7264 0
1 129.107 37.2401 0
1 123.502 64.8051 0
1 124.176 136.114 0
1 65.5699 43.2549 0
1 200.103 1.20466 0
1 4.36499 29.7688 0
1 184.384 125.188 0
1 81.7885 92.0926 0
1 125.525 89.1891 0
1 40.9988 77.3481 0
1 -16.0872 12.3681 0
1 199.495 16.4094 0
1 -20.3276 15.7157 0
1 227.755 69.7751 0
1 35.6443 100.045 0
1 145.312 82.511 0
1 16.3134 7.43028 0
1 76.4743 57.7642 0
1 186.985 132.785 0
1 144.156 131.95 0
1 70.4967 -4.43851 0
1 237.984 42.3319 0
1 48.3121 87.2042 0
1 47.5244 68.4513 0
1 127.351 44.4527 0
1 43.9809 88.3882 0
1 4.39752 122.729 0
1 225.623 48.1121 0
1 110.642 17.2099 0
1 -27.8324 49.8713 0
1 131.39 32.0083 0
1 231.977 -6.40595 0
1 79.7712 72.6962 0
1 126.503 83.3492 0
1 34.691 63.1083 0
1 134.309 134.389 0
1 238.203 62.62 0
1 78.3725 119.083 0
1 132.32 89.2232 0
1 241.185 43.8788 0
1 -11.2743 34.1234 0
1 -12.6146 84.439 0
1 58.4813 73.265 0
1 46.9411 137.571 0
1 101.857 125.92 0
1 59.8219 60.3333 0
1 130.231 49.8022 0
1 228.16 -11.3962 0
1 -1.32642 -10.9418 0
1 50.6606 1.97443 0
1 41.3966 117.39 0
1 138.946 68.4383 0
1 42.088 137.015 0
1 78.7944 8.97674 0
1 -23.6642 22.3395 0
1 167.092 75.4191 0
1 26.9847 20.7628 0
1 232.36 47.6595 0
1 28.7933 68.9831 0
1 0.265076 69.4272 0
1 31.677 126.076 0
1 172.16 56.9748 0
1 26.8036 17.6582 0
1 26.0966 38.5954 0
1 15.4716 114.629 0
1 96.8412 47.7556 0
1 34.2443 131.35 0
1 37.158 45.5993 0
1 112.231 131.449 0
1 51.5177 42.0252 0
1 195.439 21.126 0
1 6.28429 -12.0743 0
1 3.04736 12.1956 0
1 15.7643 2.95066 0
1 157.563 89.9543 0
1 45.901 71.5762 0
1 104.117 -12.3071 0
1 79.3144 31.3967 0
1 189.1 82.9252 0
1 180.812 16.1713 0
1 83.0628 68.2257 0
1 152.876 50.2611 0
1 152.91 11.9199 0
1 80.826 -12.419 0
1 106.351 116.948 0
1 180.678 72.9012 0
1 115.866 110.897 0
1 239.183 132.031 0
1 137.254 123.782 0
1 -2.83536 45.6969 0
1 96.1738 -9.13054 0
1 204.222 28.7321 0
1 -13.9864 127.055 0
1 37.0522 7.16112 0
1 21.1053 -15.796 0
1 44.1785 29.4932 0
1 153.314 59.5736 0
1 -21.2738 -4.7739 0
1 100.746 74.0436 0
1 -24.1752 119.594 0
1 -29.7371 130.26 0
1 31.667 -9.77086 0
1 80.7443 0.601565 0
1 172.536 74.5861 0
1 187.476 128.979 0
1 115.571 96.2809 0
1 -2.61423 20.126 0
1 194.914 26.3914 0
1 148.198 26.1643 0
1 128.192 7.74029 0
1 52.9699 130.784 0
1 78.3296 0.948193 0
1 113.477 95.8004 0
1 227.798 20.6281 0
1 43.0016 41.0052 0
1 123.913 99.0833 0
1 86.7502 -9.54458 0
1 9.32058 65.2687 0
1 79.5756 114.403 0
1 121.914 102.169 0
1 141.266 96.0296 0
1 127.651 26.2832 0
1 30.5066 8.95655 0
1 20.3345 34.0387 0
1 67.1615 64.784 0
1 195.273 -2.78603 0
1 -6.06828 42.9978 0
1 172.698 128.814 0
1 75.8312 40.623 0
1 40.8654 -16.7528 0
1 108.143 111.351 0
1 177.558 16.7932 0
1 -1.35802 137.356 0
1 56.0583 85.8556 0
1 193.216 18.6004 0
1 -12.1385 39.3023 0
1 146.211 125.283 0
1 22.804 41.723 0
1 13.6694 60.7646 0
1 74.7298 110.563 0
1 60.4758 -10.2026 0
1 17.5211 83.7628 0
1 155.303 100.239 0
1 222.589 36.9857 0
1 1.08121 1.8035 0
1 20.8427 58.4515 0
1 90.2936 69.6546 0
1 -0.435172 42.0573 0
1 25.4898 68.7782 0
1 147.991 110.698 0
1 236.121 135.113 0
1 86.6887 -6.85637 0
1 5.85922 40.7159 0
1 96.5137 108.638 0
1 -26.1092 12.5881 0
1 231.436 -13.7669 0
1 96.0154 61.1724 0
1 29.2139 84.5309 0
1 131.913 112.357 0
1 73.1835 96.1548 0
1 7.4094 119.325 0
1 80.2654 110.116 0
1 -23.4977 117.677 0
1 18.0311 72.7654 0
1 201.642 16.429 0
1 129.613 59.0018 0
1 -31.2756 80.7024 0
1 130.604 108.793 0
1 -17.0745 -6.51419 0
1 4.97444 -13.9792 0
1 26.2957 11.5937 0
1 -14.5543 51.0156 0
1 172.686 43.0062 0
1 26.8434 0.230095 0
1 81.6726 55.877 0
1 6.02803 140.774 0
1 26.1012 117.879 0
1 106.548 81.9864 0
1 12.429 51.6311 0
1 103.928 107.575 0
1 28.4273 23.0842 0
1 150.544 19.1213 0
1 -4.47002 33.0198 0
1 7.46632 47.0717 0
1 41.8182 75.0778 0
1 47.8312 0.197327 0
1 230.83 124.912 0
1 151.124 77.5972 0
1 128.221 39.0934 0
1 116.823 106.168 0
1 123.227 92.3867 0
1 36.4263 80.5461 0
1 99.4878 18.5565 0
1 94.7562 79.7783 0
1 179.279 113.388 0
1 89.2623 60.0362 0
1 83.9919 91.6155 0
1 102.558 97.9909 0
1 115.418 34.0645 0
1 63.182 50.2374 0
1 242.468 136.124 0
1 186.053 -2.09216 0
1 115.94 61.3442 0
1 164.567 66.2198 0
1 234.255 75.0788 0
1 148.649 23.0789 0
1 149.54 67.1212 0
1 70.7445 29.5334 0
1 222.894 0.85551 0
1 56.7879 13.9883 0
1 -29.3857 32.946 0
1 54.9143 22.5725 0
1 151.647 100.317 0
1 -1.67987 29.3833 0
1 104.4 15.6554 0
1 -15.0443 77.6046 0
1 84.6534 -14.7325 0
1 23.1133 70.0491 0
1 142.016 102.951 0
1 35.2418 111.657 0
1 3.40548 103.556 0
1 -10.1957 -15.3252 0
1 84.171 23.5721 0
1 23.122 -9.20586 0
1 81.1209 -7.25336 0
1 94.3407 59.6106 0
1 33.9017 33.0661 0
1 219.982 28.6624 0
1 69.2825 47.039 0
1 71.2199 90.2696 0
1 150.758 62.6097 0
1 118.199 69.21 0
1 58.6879 104.809 0
1 156.639 106.462 0
1 38.0059 47.6714 0
1 136.818 77.0732 0
1 108.872 27.9029 0
1 -15.8908 21.2377 0
1 -15.9097 8.47489 0
1 144.758 69.0576 0
1 83.1207 26.9017 0
1 91.7136 39.4235 0
1 150.374 26.4217 0
1 175.905 129.666 0
1 123.536 120.959 0
1 110.206 133.756 0
1 100.977 89.1666 0
1 -5.78632 -0.47848 0
1 12.9033 14.1348 0
1 -12.5007 46.8174 0
1 62.9001 127.814 0
1 124.202 26.0767 0
1 231.151 37.524 0
1 179.058 132.055 0
1 -4.83702 123.589 0
1 32.685 -17.0529 0
1 231.273 20.9391 0
1 118.372 65.0947 0
1 5.71321 90.5065 0
1 223.141 29.6987 0
1 204.225 137.916 0
1 -19.6565 34.9982 0
1 65.0783 139.012 0
1 145.359 92.2161 0
1 41.6211 79.521 0
1 88.1843 129.551 0
1 115.736 27.6638 0
1 9.66245 39.8297 0
1 179.528 63.0609 0
1 89.5931 109.941 0
1 54.0568 107.02 0
1 155.151 69.6496 0
1 -24.4548 6.69521 0
1 234.387 80.469 0
1 55.2325 63.2342 0
1 60.8578 33.5453 0
1 62.1424 111.55 0
1 110.042 37.8397 0
1 186.641 -11.465 0
1 166.582 43.9106 0
1 178.819 67.7786 0
1 55.1043 47.7804 0
1 -24.1917 65.5641 0
1 8.18075 -4.94039 0
1 137.806 37.0147 0
1 12.364 92.8647 0
1 219.231 16.2065 0
1 84.0118 70.2984 0
1 178.863 -1.62683 0
1 149.205 76.8931 0
1 -29.2384 21.8264 0
1 -0.14804 124.657 0
1 9.08498 58.9153 0
1 3.07985 82.3159 0
1 223.364 8.75126 0
1 242.652 50.5544 0
1 106.927 106.148 0
1 181.325 117.298 0
1 59.3505 134.436 0
1 98.1638 13.1513 0
1 160.087 55.4134 0
1 61.8264 119.846 0
1 0.924822 96.9604 0
1 192.255 -2.26315 0
1 94.6433 89.9469 0
1 242.416 130.073 0
1 48.6198 101.76 0
1 -19.1401 102.171 0
1 93.1678 117.222 0
1 -24.9095 29.51 0
1 152.37 70.559 0
1 141.886 54.4339 0
1 26.309 92.3801 0
1 53.9497 70.3121 0
1 111.912 54.0648 0
1 58.8469 100.09 0
1 86.9768 -3.36147 0
1 190.857 85.5912 0
1 46.459 -4.26661 0
1 171.459 59.5337 0
1 10.0029 16.6171 0
1 120.044 31.1983 0
1 -16.6841 75.8296 0
1 145.91 77.5029 0
1 175.478 62.9597 0
1 115.152 9.82452 0
1 5.59614 53.4916 0
1 182.798 65.1366 0
1 233.019 38.9775 0
1 32.7636 89.6198 0
1 45.1519 26.9057 0
1 -23.1337 82.842 0
1 -9.48973 30.3441 0
1 241.106 60.6828 0
1 155.067 87.5785 0
1 -23.0489 38.3897 0
1 136.579 94.4264 0
1 16.4831 33.3082 0
1 -14.4603 -9.14013 0
1 88.7818 -5.05724 0
1 33.9281 27.2475 0
1 71.8947 1.6981 0
1 -25.5693 59.4263 0
1 32.5965 41.5231 0
1 65.4431 47.8019 0
1 52.0137 137.288 0
1 24.5747 44.9697 0
1 43.3232 32.3087 0
1 51.2785 45.8564 0
1 77.0716 -11.2476 0
1 241.089 69.9389 0
1 64.6591 65.0874 0
1 2.04889 65.19 0
1 45.5177 113.684 0
1 1.62443 104.999 0
1 33.5446 87.1338 0
1 -18.9491 107.807 0
1 159.439 12.5744 0
1 -17.6811 112.065 0
1 175.393 137.246 0
1 137.821 50.5979 0
1 45.2317 -13.0616 0
1 211.822 132.01 0
1 152.87 19.5458 0
1 75.7762 43.9954 0
1 94.4376 46.332 0
1 136.975 80.2882 0
1 97.3831 84.7168 0
1 65.7969 -15.3326 0
1 115.593 2.35123 0
1 226.25 22.6469 0
1 142.73 60.3661 0
1 -4.72957 -2.92607 0
1 227.382 34.8552 0
1 205.708 78.4281 0
1 44.1326 63.3192 0
1 19.2707 120.988 0
1 167.091 121.889 0
1 226.996 11.9401 0
1 90.9328 -17.7332 0
1 54.6337 5.52875 0
1 150.966 16.8963 0
1 85.588 106.354 0
1 132.953 71.7481 0
1 202.161 -6.87629 0
1 10.983 49.6977 0
1 59.2124 96.2672 0
1 100.827 45.6446 0
1 57.2503 138.487 0
1 46.0885 50.7677 0
1 76.7336 91.7218 0
1 135.644 129.411 0
1 49.2014 82.4078 0
1 178.367 111.257 0
1 5.45141 10.504 0
1 161.189 92.9535 0
1 62.7848 53.2547 0
1 70.6412 138.291 0
1 221.06 -4.00686 0
1 3.19579 53.09 0
1 236.107 76.1982 0
1 234.809 24.5359 0
1 80.3009 59.8584 0
1 9.37688 136.409 0
1 -25.7131 103.352 0
1 243.391 125.979 0
1 172.398 108.214 0
1 231.044 128.282 0
1 48.3472 109.414 0
1 26.3612 125.157 0
1 79.5647 127.442 0
1 5.32357 100.933 0
1 50.5464 -8.61245 0
1 10.0594 73.7374 0
1 24.2217 21.1968 0
1 43.8047 -5.47401 0
1 53.0201 103.368 0
1 53.7426 10.1414 0
1 195.767 78.3547 0
1 100.887 12.7457 0
1 11.1642 88.3758 0
1 46.8169 29.7126 0
1 113.934 -7.20232 0
1 139.454 27.4903 0
1 -7.8028 38.0708 0
1 133.006 101.223 0
1 -0.0167375 81.6946 0
1 -30.7645 42.0168 0
1 50.1697 127.431 0
1 115.534 77.4278 0
1 36.9279 14.0211 0
1 120.849 21.7974 0
1 148.338 -6.89995 0
1 46.2524 111.556 0
1 171.255 131.976 0
1 59.5306 128.462 0
1 78.5293 98.6326 0
1 76.8368 87.3793 0
1 172.512 65.8506 0
1 -7.93203 8.24849 0
1 -24.0889 63.2359 0
1 57.2996 79.0827 0
1 47.5806 27.148 0
1 71.3211 19.2866 0
1 62.4221 -11.4664 0
1 200.512 114.021 0
1 87.2424 138.109 0
1 126.435 112.051 0
1 31.904 81.1032 0
1 68.2291 51.7922 0
1 37.7238 60.0508 0
1 133.726 44.4523 0
1 -26.7394 96.6327 0
1 2.57655 -16.2538 0
1 133.095 120.557 0
1 42.385 109.215 0
1 -22.2833 120.569 0
1 157.11 64.0302 0
1 0.895789 -9.41503 0
1 24.7243 66.4311 0
1 230.801 -0.632545 0
1 195.185 132.801 0
1 71.7382 56.7588 0
1 105.484 53.7618 0
1 8.68599 106.797 0
1 99.512 92.3154 0
1 224.683 62.6917 0
1 200.059 6.2569 0
1 20.4497 137.383 0
1 15.9342 74.0403 0
1 35.0765 61.1455 0
1 21.0254 75.9876 0
1 85.8962 140.313 0
1 120.282 140.267 0
1 44.1016 124.77 0
1 115.308 89.7732 0
1 181.69 -7.56551 0
1 42.285 46.3528 0
1 197.987 33.8082 0
1 149.494 129.543 0
1 29.9574 71.3663 0
1 165.242 71.3025 0
1 107.222 32.8873 0
1 16.9566 108.993 0
1 15.7525 -4.93958 0
1 19.9692 -2.604 0
1 -12.4696 -10.7557 0
1 98.8748 90.0075 0
1 131.576 -5.71559 0
1 32.3221 62.6843 0
1 117.83 140.514 0
1 82.2581 4.65166 0
1 19.8817 0.576908 0
1 39.2679 25.5591 0
1 244.601 132.559 0
1 37.1778 -2.62231 0
1 142.266 92.8361 0
1 64.2537 3.50917 0
1 149.915 112.008 0
1 116.787 102.136 0
1 85.1365 127.754 0
1 6.89038 69.0698 0
1 50.3421 37.4874 0
1 72.883 -6.51884 0
1 47.0672 126.004 0
1 9.57506 71.1884 0
1 67.9048 132.509 0
1 192.603 25.745 0
1 206.694 7.67875 0
1 3.22804 74.1915 0
1 99.5345 24.6128 0
1 -4.99594 8.56963 0
1 -3.70129 43.3204 0
1 114.575 -13.6276 0
1 113.849 121.123 0
1 82.9814 10.6599 0
1 162.188 115.443 0
1 -11.6871 31.6309 0
1 108.486 -9.38168 0
1 230.89 138.976 0
1 46.6749 -2.00817 0
1 127.816 117.274 0
1 121.232 53.0565 0
1 12.9449 111.334 0
1 74.5809 93.2505 0
1 26.2094 97.596 0
1 84.6792 112.627 0
1 166.193 89.6975 0
1 -28.1567 115.925 0
1 181.61 39.214 0
1 2.62074 -10.5853 0
1 226.111 -2.9536 0
1 178.889 135.69 0
1 155.651 62.3783 0
1 -17.6386 37.7951 0
1 11.6774 -1.87684 0
1 14.4911 105.23 0
1 201.803 34.7974 0
1 167.531 101.584 0
1 168.619 90.7612 0
1 -15.5067 67.0583 0
1 167.371 108.308 0
1 52.1622 66.2703 0
1 89.3864 -11.3702 0
1 -18.152 -8.49771 0
1 57.2205 101.643 0
1 145.519 130.395 0
1 85.6012 115.692 0
1 -1.70943 110.845 0
1 95.5025 86.2759 0
1 45.1494 65.2459 0
1 -8.66324 42.2861 0
1 38.2939 78.7554 0
1 104.29 21.4353 0
1 -29.8985 97.534 0
1 229.986 23.3029 0
1 137.629 89.5388 0
1 84.3029 117.638 0
1 147.119 137.545 0
1 41.2696 38.3996 0
1 150.449 118.588 0
1 74.1324 139.791 0
1 63.3688 63.3138 0
1 186.675 12.7562 0
1 203.246 4.49437 0
1 215.382 30.7445 0
1 224.758 129.717 0
1 5.84728 109.719 0
1 93.3127 38.2544 0
1 32.598 122.752 0
1 27.1325 71.5005 0
1 104.544 79.3833 0
1 -19.9993 18.999 0
1 29.6068 53.672 0
1 215.294 25.7987 0
1 109.15 75.6973 0
1 153.572 74.904 0
1 -5.8922 94.0671 0
1 63.0365 108.889 0
1 -15.8419 32.6805 0
1 104.497 41.9752 0
1 57.272 71.2875 0
1 50.8594 9.03203 0
1 -26.4529 111.761 0
1 127.925 49.3922 0
1 103.985 36.2493 0
1 -12.0434 5.90243 0
1 37.6495 108.812 0