LAMMPS (7 Jun 2013)
units			metal
atom_style		atomic
#timestep 		0.001
dimension 	        2
boundary		p p p
read_data       SiC.lammpstrj
  orthogonal box = (0 0 -0.5) to (213.6 123.322 0.5)
  6 by 4 by 1 MPI processor grid
  6400 atoms
mass			1 28.0855
mass			2 12.0107

velocity	all create 50.0 12345

pair_style tersoff
pair_coeff * * SiC.tersoff Si C

thermo_style custom step temp etotal  xlo xhi ylo yhi zlo zhi vol
#========================================RELAX================================================
fix			1 all npt temp 50.0 50.0 0.001 x 0.0 0.0 1000.0 y 0.0 0.0 1000.0 couple xy
dump				1 all xyz 100000 relax50.xyz
thermo				100000
run				100000
Memory usage per processor = 1.62034 Mbytes
Step Temp TotEng Xlo Xhi Ylo Yhi Zlo Zhi Volume 
       0           50   -36332.309            0        213.6            0      123.322         -0.5          0.5    26341.579 
  100000    50.236096   -36355.771   -1.3189119    214.91891  -0.76147403    124.08347         -0.5          0.5      26996.2 
Loop time of 255.245 on 24 procs for 100000 steps with 6400 atoms

Pair  time (%) = 182.443 (71.4776)
Neigh time (%) = 0.00119 (0.000466218)
Comm  time (%) = 22.9943 (9.00872)
Outpt time (%) = 0.524599 (0.205528)
Other time (%) = 49.2817 (19.3076)

Nlocal:    266.667 ave 280 max 257 min
Histogram: 1 6 1 4 4 2 3 2 0 1
Nghost:    192 ave 202 max 178 min
Histogram: 1 0 3 2 1 6 2 4 4 1
Neighs:    0 ave 0 max 0 min
Histogram: 24 0 0 0 0 0 0 0 0 0
FullNghs:  4800 ave 5040 max 4626 min
Histogram: 1 6 1 4 4 2 3 2 0 1

Total # of neighbors = 115200
Ave neighs/atom = 18
Neighbor list builds = 5
Dangerous builds = 0
undump				1
unfix				1
#=============================================================================================

#==================================HEATING at 2x10^11 K/s=====================================
#*********************************************************************************************
# DELTA_T  = 6500K-50K = 6450K
# DURATION = 6450K : 2x10^11 K/s = 3225x10^-11 s
# STEPS    = 3225x10^-11 s : 0,001 ps = 3225x10^-11 : 10^-15 = 3225x10^4 MDs
# thermo output : each 5K
# DELTA_T = 5K
# DURATION = 5K : 2x10^11 K/s = 25x10^-12 s
# STEPS    = 25x10^-12 s : 0,001 ps = 25x10^-12 : 10^-15 = 25000 MDs
# dump output : each 50K
# DELTA_T = 50K
# DURATION = 50K : 2x10^11 K/s = 25x10^-11 s
# STEPS    = 25x10^-11 s : 0,001 ps = 25x10^-11 : 10^-15 = 250000 MDs
#*********************************************************************************************
fix			1 all npt temp 50.0 6500.0 0.001 x 0.0 0.0 1000.0 y 0.0 0.0 1000.0 couple xy
dump				1 all xyz 250000 liquid.xyz
thermo				25000
run				32250000
Memory usage per processor = 1.59576 Mbytes
Step Temp TotEng Xlo Xhi Ylo Yhi Zlo Zhi Volume 
  100000    50.236096   -36355.771   -1.3189119    214.91891  -0.76147403    124.08347         -0.5          0.5      26996.2 
  125000    55.098145    -36350.78   -1.3295381    214.92954  -0.76760908    124.08961         -0.5          0.5    27001.507 
  150000    60.771899   -36344.899   -1.3265458    214.92655  -0.76588145    124.08788         -0.5          0.5    27000.012 
  175000    63.833452   -36338.762   -1.3333016     214.9333   -0.7697819    124.09178         -0.5          0.5    27003.386 
  200000    70.782758   -36333.468   -1.3351839    214.93518  -0.77086866    124.09287         -0.5          0.5    27004.326 
  225000    75.813466   -36327.578   -1.3364095    214.93641  -0.77157625    124.09358         -0.5          0.5    27004.939 
  250000    78.516511   -36322.346   -1.3438636    214.94386  -0.77587992    124.09788         -0.5          0.5    27008.662 
  275000    84.719528   -36317.778   -1.3402387    214.94024  -0.77378704    124.09579         -0.5          0.5    27006.851 
  300000    89.309909   -36311.959   -1.3512186    214.95122  -0.78012631    124.10213         -0.5          0.5    27012.336 
  325000    96.093104   -36306.959   -1.3454912    214.94549  -0.77681962    124.09882         -0.5          0.5    27009.475 
  350000    100.40535   -36300.398   -1.3568059    214.95681  -0.78335212    124.10535         -0.5          0.5    27015.127 
  375000    105.24439   -36294.749   -1.3527978     214.9528  -0.78103805    124.10304         -0.5          0.5    27013.124 
  400000    109.60603   -36290.598   -1.3605051    214.96051  -0.78548785    124.10749         -0.5          0.5    27016.975 
  425000    113.38326   -36285.928   -1.3616329    214.96163  -0.78613898    124.10814         -0.5          0.5    27017.538 
  450000    121.03802   -36279.286   -1.3635192    214.96352  -0.78722807    124.10923         -0.5          0.5     27018.48 
  475000    125.02462   -36273.135   -1.3705348    214.97053   -0.7912785    124.11328         -0.5          0.5    27021.985 
  500000    130.97897   -36265.837   -1.3669989      214.967  -0.78923707    124.11124         -0.5          0.5    27020.219 
  525000    135.33101   -36260.463   -1.3782428    214.97824  -0.79572872    124.11773         -0.5          0.5    27025.837 
  550000    140.75202   -36255.578   -1.3724043     214.9724  -0.79235789    124.11436         -0.5          0.5     27022.92 
  575000    147.21528   -36250.397   -1.3839777    214.98398  -0.79903977    124.12104         -0.5          0.5    27028.702 
  600000    151.61435   -36245.453   -1.3797237    214.97972  -0.79658375    124.11858         -0.5          0.5    27026.577 
  625000    155.37214   -36239.574   -1.3877239    214.98772  -0.80120264     124.1232         -0.5          0.5    27030.574 
  650000    156.08523   -36236.835   -1.3885793    214.98858   -0.8016965     124.1237         -0.5          0.5    27031.002 
  675000    164.18044    -36230.15   -1.3905319    214.99053  -0.80282386    124.12482         -0.5          0.5    27031.977 
  700000    168.71573   -36222.596   -1.3974436    214.99744  -0.80681435    124.12881         -0.5          0.5    27035.431 
  725000    176.21503   -36215.258   -1.3938582    214.99386  -0.80474427    124.12674         -0.5          0.5     27033.64 
  750000    179.43141    -36209.59   -1.4053815    215.00538  -0.81139726     124.1334         -0.5          0.5    27039.398 
  775000    183.96856   -36206.141   -1.3989111    214.99891  -0.80766159    124.12966         -0.5          0.5    27036.165 
  800000    188.53585   -36201.681   -1.4112894    215.01129  -0.81480819    124.13681         -0.5          0.5    27042.351 
  825000    197.13433   -36194.096   -1.4063369    215.00634  -0.81194886    124.13395         -0.5          0.5    27039.876 
  850000    200.16169   -36187.017   -1.4149421    215.01494  -0.81691711    124.13892         -0.5          0.5    27044.177 
  875000    204.80278   -36181.767   -1.4157894    215.01579  -0.81740625    124.13941         -0.5          0.5      27044.6 
  900000    209.88444   -36178.265   -1.4175327    215.01753  -0.81841277    124.14041         -0.5          0.5    27045.472 
  925000    209.43292   -36175.802   -1.4256835    215.02568  -0.82311863    124.14512         -0.5          0.5    27049.546 
  950000    218.91966   -36167.752    -1.419853    215.01985   -0.8197524    124.14175         -0.5          0.5    27046.631 
  975000     223.7633   -36160.448    -1.434465    215.03447  -0.82818865    124.15019         -0.5          0.5    27053.936 
 1000000    229.16699   -36155.288    -1.424419    215.02442  -0.82238856    124.14439         -0.5          0.5    27048.914 
 1025000    233.62519   -36148.617   -1.4405527    215.04055  -0.83170335     124.1537         -0.5          0.5    27056.979 
 1050000    236.88638    -36143.45   -1.4324489    215.03245  -0.82702462    124.14902         -0.5          0.5    27052.928 
 1075000    247.25585   -36136.959   -1.4432276    215.04323   -0.8332477    124.15525         -0.5          0.5    27058.316 
 1100000      257.729   -36126.037   -1.4433061    215.04331  -0.83329302    124.15529         -0.5          0.5    27058.356 
 1125000    259.55906   -36122.684   -1.4437894    215.04379   -0.8335721    124.15557         -0.5          0.5    27058.597 
 1150000    262.47834   -36120.102   -1.4557985     215.0558  -0.84050557    124.16251         -0.5          0.5    27064.602 
 1175000    269.68776   -36116.156   -1.4442256    215.04423   -0.8338239    124.15582         -0.5          0.5    27058.815 
 1200000    271.63308   -36107.229   -1.4665827    215.06658  -0.84673178    124.16873         -0.5          0.5    27069.994 
 1225000    275.44513   -36103.562   -1.4484374    215.04844  -0.83625561    124.15826         -0.5          0.5    27060.921 
 1250000    284.51616   -36098.421   -1.4724347    215.07243  -0.85011044    124.17211         -0.5          0.5     27072.92 
 1275000    284.04972   -36093.727   -1.4575216    215.05752  -0.84150035     124.1635         -0.5          0.5    27065.463 
 1300000     286.3606   -36091.373   -1.4728345    215.07283  -0.85034129    124.17234         -0.5          0.5     27073.12 
 1325000    303.25505   -36080.844   -1.4718474    215.07185  -0.84977135    124.17177         -0.5          0.5    27072.627 
 1350000    307.45731   -36069.229   -1.4698017     215.0698  -0.84859027    124.17059         -0.5          0.5    27071.604 
 1375000    312.19597   -36066.537   -1.4878709    215.08787  -0.85902255    124.18102         -0.5          0.5    27080.641 
 1400000    309.51495   -36068.645   -1.4684281    215.06843  -0.84779722     124.1698         -0.5          0.5    27070.917 
 1425000    323.87892   -36054.784   -1.5007343    215.10073  -0.86644924    124.18845         -0.5          0.5    27087.075 
 1450000    319.50051   -36056.316   -1.4717036     215.0717  -0.84968835    124.17169         -0.5          0.5    27072.555 
 1475000    323.18875   -36051.796   -1.5061404    215.10614  -0.86957043    124.19157         -0.5          0.5    27089.779 
 1500000    332.71713   -36044.849   -1.4834569    215.08346  -0.85647413    124.17847         -0.5          0.5    27078.433 
 1525000    333.68898   -36040.506   -1.5044242    215.10442  -0.86857958    124.19058         -0.5          0.5     27088.92 
 1550000    347.01427   -36028.361   -1.5000746    215.10007  -0.86606836    124.18807         -0.5          0.5    27086.745 
 1575000    342.30764   -36025.917   -1.5000464    215.10005  -0.86605205    124.18805         -0.5          0.5    27086.731 
 1600000    347.13609   -36024.439   -1.5183227    215.11832  -0.87660391     124.1986         -0.5          0.5    27095.873 
 1625000    356.66189   -36008.038   -1.4962791    215.09628  -0.86387699    124.18588         -0.5          0.5    27084.846 
 1650000    357.99556   -36008.899    -1.533511    215.13351  -0.88537285    124.20737         -0.5          0.5    27103.473 
 1675000    363.51276    -36001.54   -1.4984036     215.0984  -0.86510361     124.1871         -0.5          0.5    27085.909 
 1700000    372.50688   -35997.633   -1.5401633    215.14016  -0.88921358    124.21121         -0.5          0.5    27106.801 
 1725000    373.62014   -35992.477    -1.509679    215.10968  -0.87161347    124.19361         -0.5          0.5    27091.549 
 1750000    383.56594   -35985.222   -1.5391181    215.13912   -0.8886101    124.21061         -0.5          0.5    27106.278 
 1775000     385.7302   -35975.928   -1.5280497    215.12805  -0.88221977    124.20422         -0.5          0.5     27100.74 
 1800000    383.66907   -35979.656   -1.5325191    215.13252  -0.88480017     124.2068         -0.5          0.5    27102.976 
 1825000    396.06955   -35962.577   -1.5493234    215.14932  -0.89450214     124.2165         -0.5          0.5    27111.385 
 1850000    403.54401   -35960.694   -1.5256993     215.1257  -0.88086278    124.20286         -0.5          0.5    27099.564 
 1875000    412.59816   -35957.993   -1.5669773    215.16698  -0.90469466    124.22669         -0.5          0.5    27120.221 
 1900000    406.65579   -35953.304   -1.5263209    215.12632  -0.88122167    124.20322         -0.5          0.5    27099.875 
 1925000    422.38984   -35944.568    -1.575489    215.17549  -0.90960888    124.23161         -0.5          0.5    27124.481 
 1950000     426.1072   -35937.975   -1.5374535    215.13745  -0.88764908    124.20965         -0.5          0.5    27105.445 
 1975000    417.89122   -35940.338   -1.5748832    215.17488   -0.9092591    124.23126         -0.5          0.5    27124.178 
 2000000    427.46801   -35934.597   -1.5570411    215.15704  -0.89895796    124.22096         -0.5          0.5    27115.248 
 2025000    437.05695   -35928.651   -1.5665136    215.16651  -0.90442694    124.22643         -0.5          0.5    27119.989 
 2050000    446.36348   -35920.303   -1.5816033     215.1816  -0.91313898    124.23514         -0.5          0.5    27127.542 
 2075000     449.1504   -35914.688   -1.5571072    215.15711  -0.89899615      124.221         -0.5          0.5    27115.281 
 2100000      452.802   -35905.907   -1.6025406    215.20254  -0.92522713    124.24723         -0.5          0.5    27138.024 
 2125000     452.4788   -35898.582   -1.5549945    215.15499  -0.89777638    124.21978         -0.5          0.5    27114.223 
 2150000    464.62265   -35894.326   -1.6154131    215.21541  -0.93265906    124.25466         -0.5          0.5     27144.47 
 2175000     468.2541   -35890.703   -1.5631982     215.1632  -0.90251277    124.22451         -0.5          0.5    27118.329 
 2200000    474.81565   -35885.598   -1.6163066    215.21631  -0.93317494    124.25517         -0.5          0.5    27144.917 
 2225000    474.12969   -35884.942   -1.5825773    215.18258  -0.91370131     124.2357         -0.5          0.5     27128.03 
 2250000    482.89242   -35879.469    -1.606912    215.20691  -0.92775093    124.24975         -0.5          0.5    27140.213 
 2275000    482.68828    -35868.43   -1.6113147    215.21131  -0.93029285    124.25229         -0.5          0.5    27142.417 
 2300000    485.62347   -35868.486    -1.590833    215.19083  -0.91846775    124.24047         -0.5          0.5    27132.163 
 2325000    497.56286   -35857.299   -1.6419234    215.24192  -0.94796478    124.26996         -0.5          0.5    27157.746 
 2350000    495.28384   -35855.337   -1.5796083    215.17961  -0.91198717    124.23399         -0.5          0.5    27126.543 
 2375000    507.06393    -35851.71   -1.6633107    215.26331  -0.96031276    124.28231         -0.5          0.5     27168.46 
 2400000    509.01177   -35851.047   -1.5809598    215.18096  -0.91276742    124.23477         -0.5          0.5     27127.22 
 2425000    517.49684   -35833.289   -1.6676386    215.26764  -0.96281146    124.28481         -0.5          0.5    27170.628 
 2450000    519.18498   -35827.101   -1.6023638    215.20236  -0.92512506    124.24713         -0.5          0.5    27137.936 
 2475000    520.10351   -35829.697   -1.6537839    215.25378  -0.95481242    124.27681         -0.5          0.5    27163.687 
 2500000    534.48097   -35818.262    -1.639108    215.23911  -0.94633933    124.26834         -0.5          0.5    27156.336 
 2525000    526.33653   -35819.316    -1.629254    215.22925   -0.9406501    124.26265         -0.5          0.5    27151.401 
 2550000    521.30952   -35819.798   -1.6801459    215.28015  -0.97003252    124.29203         -0.5          0.5    27176.894 
 2575000    548.66195   -35805.139   -1.6087617    215.20876  -0.92881886    124.25082         -0.5          0.5    27141.139 
 2600000    553.89436   -35790.026   -1.7105719    215.31057  -0.98759901     124.3096         -0.5          0.5    27192.141 
 2625000    549.19284   -35799.698   -1.6038559    215.20386  -0.92598652    124.24799         -0.5          0.5    27138.683 
 2650000    560.43796   -35792.096   -1.7201257    215.32013  -0.99311488    124.31511         -0.5          0.5     27196.93 
 2675000    566.84386    -35777.87   -1.6207589    215.22076  -0.93574544    124.25775         -0.5          0.5    27147.147 
 2700000    568.00278   -35777.288   -1.7084412    215.30844  -0.98636885    124.30837         -0.5          0.5    27191.073 
 2725000    578.24974   -35775.592   -1.6582529    215.25825  -0.95739265    124.27939         -0.5          0.5    27165.926 
 2750000    578.16909   -35771.363   -1.6811162    215.28112  -0.97059273    124.29259         -0.5          0.5     27177.38 
 2775000    599.61928   -35754.344   -1.7049777    215.30498  -0.98436917    124.30637         -0.5          0.5    27189.338 
 2800000    591.66377   -35761.558   -1.6542547    215.25425  -0.95508427    124.27708         -0.5          0.5    27163.923 
 2825000    597.34631   -35747.765   -1.7422795    215.34228   -1.0059054    124.32791         -0.5          0.5    27208.035 
 2850000     581.3769   -35757.746   -1.6413602    215.24136  -0.94763963    124.26964         -0.5          0.5    27157.464 
 2875000    595.32586   -35743.777   -1.7613832    215.36138   -1.0169349    124.33893         -0.5          0.5    27217.613 
 2900000    620.95703   -35718.936   -1.6507986     215.2508   -0.9530889    124.27509         -0.5          0.5    27162.192 
 2925000    603.09824   -35731.917    -1.757294    215.35729    -1.014574    124.33657         -0.5          0.5    27215.563 
 2950000    622.53019   -35716.269   -1.6799126    215.27991  -0.96989786     124.2919         -0.5          0.5    27176.777 
 2975000    624.93008   -35714.812   -1.7395922    215.33959   -1.0043539    124.32635         -0.5          0.5    27206.688 
 3000000    623.77531   -35721.844   -1.7167559    215.31676  -0.99116934    124.31317         -0.5          0.5    27195.241 
 3025000    649.47897   -35695.978   -1.7207238    215.32072  -0.99346021    124.31546         -0.5          0.5    27197.229 
 3050000    634.97216    -35702.95   -1.7485844    215.34858   -1.0095456    124.33155         -0.5          0.5    27211.196 
 3075000    635.60189   -35696.895   -1.7114215    215.31142  -0.98808951    124.31009         -0.5          0.5    27192.567 
 3100000    660.54093   -35680.807   -1.7692367    215.36924   -1.0214691    124.34347         -0.5          0.5    27221.551 
 3125000    656.85612   -35685.383   -1.7153523    215.31535  -0.99035894    124.31236         -0.5          0.5    27194.537 
 3150000    664.29798   -35674.811   -1.7770308    215.37703   -1.0259691    124.34797         -0.5          0.5     27225.46 
 3175000    666.84261   -35671.697   -1.7289955      215.329  -0.99823587    124.32024         -0.5          0.5    27201.376 
 3200000    673.83997   -35666.697   -1.7780597    215.37806   -1.0265631    124.34856         -0.5          0.5    27225.976 
 3225000    679.06331   -35665.361   -1.7475248    215.34752   -1.0089338    124.33093         -0.5          0.5    27210.665 
 3250000    685.61957   -35651.424   -1.7754819    215.37548   -1.0250748    124.34707         -0.5          0.5    27224.683 
 3275000    692.17821   -35642.917   -1.7686398    215.36864   -1.0211245    124.34312         -0.5          0.5    27221.252 
 3300000    698.91343   -35642.598   -1.7712305    215.37123   -1.0226202    124.34462         -0.5          0.5    27222.551 
 3325000    674.21976   -35649.735   -1.7888794    215.38888   -1.0328099    124.35481         -0.5          0.5    27231.402 
 3350000    702.16052   -35625.769   -1.7690181    215.36902    -1.021343    124.34334         -0.5          0.5    27221.442 
 3375000     712.6205   -35619.656   -1.8052605    215.40526   -1.0422675    124.36427         -0.5          0.5    27239.619 
 3400000    700.72514   -35623.561   -1.7764365    215.37644   -1.0256259    124.34763         -0.5          0.5    27225.162 
 3425000    710.39848   -35616.881   -1.8134104    215.41341   -1.0469728    124.36897         -0.5          0.5    27243.707 
 3450000    729.01027   -35610.629   -1.7874989     215.3875   -1.0320128    124.35401         -0.5          0.5     27230.71 
 3475000    721.59527   -35609.072   -1.8189131    215.41891   -1.0501498    124.37215         -0.5          0.5    27246.468 
 3500000    729.56973   -35606.147    -1.800834    215.40083   -1.0397118    124.36171         -0.5          0.5    27237.398 
 3525000    731.12273   -35593.303   -1.8214488    215.42145   -1.0516138    124.37361         -0.5          0.5     27247.74 
 3550000    752.12029   -35585.463   -1.8181463    215.41815   -1.0497071    124.37171         -0.5          0.5    27246.083 
 3575000     756.5546   -35576.894    -1.821245    215.42124   -1.0514961     124.3735         -0.5          0.5    27247.638 
 3600000    739.84651   -35584.175   -1.8361814    215.43618   -1.0601196    124.38212         -0.5          0.5    27255.132 
 3625000    772.25279   -35564.152   -1.8207222    215.42072   -1.0511943    124.37319         -0.5          0.5    27247.375 
 3650000    751.96823   -35567.432   -1.8526703    215.45267   -1.0696396    124.39164         -0.5          0.5    27263.406 
 3675000    756.77226   -35568.873   -1.8221793    215.42218   -1.0520356    124.37404         -0.5          0.5    27248.106 
 3700000    776.41593   -35548.884   -1.8683359    215.46834   -1.0786841    124.40068         -0.5          0.5    27271.268 
 3725000    776.96787   -35556.621   -1.8313369    215.43134   -1.0573227    124.37932         -0.5          0.5    27252.701 
 3750000    804.88693   -35527.719   -1.8741634    215.47416   -1.0820486    124.40405         -0.5          0.5    27274.193 
 3775000    783.48506    -35536.17   -1.8470625    215.44706   -1.0664019     124.3884         -0.5          0.5    27260.592 
 3800000    799.36512   -35528.933   -1.8737627    215.47376   -1.0818172    124.40382         -0.5          0.5    27273.992 
 3825000    786.38393   -35538.764   -1.8674731    215.46747   -1.0781859    124.40019         -0.5          0.5    27270.835 
 3850000    818.17694   -35518.208   -1.8681134    215.46811   -1.0785556    124.40056         -0.5          0.5    27271.157 
 3875000    807.07376   -35523.951   -1.8916568    215.49166   -1.0921484    124.41415         -0.5          0.5    27282.975 
 3900000    822.18383   -35506.541   -1.8619637    215.46196   -1.0750051    124.39701         -0.5          0.5     27268.07 
 3925000    803.64299   -35501.686   -1.9187332    215.51873    -1.107781    124.42978         -0.5          0.5    27296.569 
 3950000    830.61177   -35494.752   -1.8550044      215.455   -1.0709871    124.39299         -0.5          0.5    27264.577 
 3975000    843.64462   -35481.936   -1.9434876    215.54349    -1.122073    124.44407         -0.5          0.5    27309.001 
 4000000    827.10687   -35495.688   -1.8506412    215.45064   -1.0684681    124.39047         -0.5          0.5    27262.388 
 4025000    833.48821   -35486.512   -1.9597723    215.55977   -1.1314749    124.45347         -0.5          0.5    27317.181 
 4050000    839.26776   -35474.366   -1.8628231    215.46282   -1.0755013     124.3975         -0.5          0.5    27268.501 
 4075000    841.24026   -35461.053   -1.9540635    215.55406   -1.1281789    124.45018         -0.5          0.5    27314.313 
 4100000    834.93721   -35472.188   -1.8962138    215.49621   -1.0947794    124.41678         -0.5          0.5    27285.262 
 4125000    861.83139   -35462.438   -1.9342665    215.53427   -1.1167491    124.43875         -0.5          0.5     27304.37 
 4150000    850.46962   -35456.159   -1.9374115    215.53741   -1.1185649    124.44056         -0.5          0.5     27305.95 
 4175000    868.41255   -35445.074   -1.9106033     215.5106   -1.1030872    124.42509         -0.5          0.5    27292.487 
 4200000    882.34691   -35433.602   -1.9800584    215.58006   -1.1431871    124.46519         -0.5          0.5    27327.373 
 4225000     864.6847   -35451.956   -1.8898476    215.48985   -1.0911039     124.4131         -0.5          0.5    27282.066 
 4250000    869.39018       -35435   -2.0135059    215.61351    -1.162498     124.4845         -0.5          0.5     27344.18 
 4275000    886.83904   -35424.734    -1.886781    215.48678   -1.0893333    124.41133         -0.5          0.5    27280.527 
 4300000    893.35272   -35420.721   -2.0260744    215.62607   -1.1697544    124.49175         -0.5          0.5    27350.497 
 4325000    913.32458   -35406.926   -1.8982735    215.49827   -1.0959686    124.41797         -0.5          0.5    27286.297 
 4350000    894.45555   -35404.173   -2.0246662    215.62467   -1.1689414    124.49094         -0.5          0.5     27349.79 
 4375000    916.23449   -35411.797    -1.927294    215.52729   -1.1127235    124.43472         -0.5          0.5    27300.868 
 4400000    902.77967   -35394.106   -2.0098271    215.60983    -1.160374    124.48237         -0.5          0.5    27342.331 
 4425000    931.75931   -35375.534   -1.9636212    215.56362   -1.1336971     124.4557         -0.5          0.5    27319.115 
 4450000    911.31534   -35396.849   -1.9904181    215.59042   -1.1491683    124.47117         -0.5          0.5    27332.578 
 4475000     936.7302   -35371.537   -1.9993608    215.59936   -1.1543313    124.47633         -0.5          0.5    27337.072 
 4500000    933.75494   -35380.332   -1.9765822    215.57658   -1.1411801    124.46318         -0.5          0.5    27325.626 
 4525000    936.80938   -35369.739   -2.0300261    215.63003    -1.172036    124.49404         -0.5          0.5    27352.484 
 4550000    914.28214   -35381.153   -1.9677871    215.56779   -1.1361023     124.4581         -0.5          0.5    27321.207 
 4575000    945.64564   -35356.378   -2.0525559    215.65256   -1.1850436    124.50704         -0.5          0.5     27363.81 
 4600000    955.25462   -35359.975   -1.9698214    215.56982   -1.1372767    124.45928         -0.5          0.5    27322.229 
 4625000    953.84171   -35347.962   -2.0637902    215.66379   -1.1915297    124.51353         -0.5          0.5    27369.458 
 4650000    948.69776   -35361.566   -1.9822132    215.58221   -1.1444312    124.46643         -0.5          0.5    27328.455 
 4675000    961.48815   -35345.519   -2.0674489    215.66745    -1.193642    124.51564         -0.5          0.5    27371.298 
 4700000    964.13486   -35349.062   -2.0035918    215.60359   -1.1567741    124.47877         -0.5          0.5    27339.198 
 4725000    955.04505   -35340.148   -2.0616839    215.66168   -1.1903136    124.51231         -0.5          0.5    27368.399 
 4750000    972.93421   -35332.432   -2.0294796    215.62948   -1.1717204    124.49372         -0.5          0.5    27352.209 
 4775000    990.41162   -35325.613   -2.0536025     215.6536   -1.1856478    124.50765         -0.5          0.5    27364.336 
 4800000    960.36692   -35331.625   -2.0588596    215.65886    -1.188683    124.51068         -0.5          0.5    27366.979 
 4825000    988.46692    -35306.77   -2.0446908    215.64469   -1.1805026     124.5025         -0.5          0.5    27359.856 
 4850000    1002.1902   -35295.231   -2.0833681    215.68337    -1.202833    124.52483         -0.5          0.5    27379.303 
 4875000    995.25799   -35305.656   -2.0420757    215.64208   -1.1789928    124.50099         -0.5          0.5    27358.541 
 4900000    1001.3203   -35287.856   -2.1005353    215.70054   -1.2127445    124.53474         -0.5          0.5    27387.938 
 4925000    1013.1904   -35290.266   -2.0491886    215.64919   -1.1830994     124.5051         -0.5          0.5    27362.117 
 4950000    996.89053   -35296.702   -2.1091297    215.70913   -1.2177064    124.53971         -0.5          0.5    27392.261 
 4975000     1040.717   -35266.864   -2.0636334    215.66363   -1.1914391    124.51344         -0.5          0.5     27369.38 
 5000000    1047.9509   -35268.232   -2.1111635    215.71116   -1.2188807    124.54088         -0.5          0.5    27393.284 
 5025000    1049.6832   -35250.745   -2.0819872    215.68199   -1.2020357    124.52404         -0.5          0.5    27378.609 
 5050000    1029.5882   -35254.225   -2.1126651    215.71267   -1.2197476    124.54175         -0.5          0.5    27394.039 
 5075000    1047.6872   -35255.689   -2.0998129    215.69981   -1.2123273    124.53433         -0.5          0.5    27387.574 
 5100000     1061.776   -35238.635   -2.1151305    215.71513    -1.221171    124.54317         -0.5          0.5    27395.279 
 5125000    1053.2147   -35239.659   -2.1176118    215.71761   -1.2226036     124.5446         -0.5          0.5    27396.528 
 5150000    1078.2002   -35225.147   -2.1147616    215.71476    -1.220958    124.54296         -0.5          0.5    27395.094 
 5175000    1068.8251   -35220.104   -2.1356774    215.73568   -1.2330337    124.55503         -0.5          0.5    27405.617 
 5200000    1078.7134   -35214.312   -2.1187258    215.71873   -1.2232468    124.54525         -0.5          0.5    27397.088 
 5225000    1068.1826   -35223.085     -2.14881    215.74881   -1.2406159    124.56262         -0.5          0.5    27412.225 
 5250000    1074.0442   -35210.345   -2.1259813    215.72598   -1.2274357    124.54944         -0.5          0.5    27400.738 
 5275000    1071.7491   -35210.513   -2.1577291    215.75773   -1.2457653    124.56777         -0.5          0.5    27416.713 
 5300000    1096.4798   -35194.413   -2.1393968     215.7394   -1.2351811    124.55718         -0.5          0.5    27407.488 
 5325000    1103.6695   -35170.489   -2.1622913    215.76229   -1.2483993     124.5704         -0.5          0.5    27419.009 
 5350000    1103.0485   -35180.125   -2.1578229    215.75782   -1.2458195    124.56782         -0.5          0.5     27416.76 
 5375000     1119.325   -35182.668   -2.1632629    215.76326   -1.2489602    124.57096         -0.5          0.5    27419.498 
 5400000    1116.7894   -35165.444   -2.1740623    215.77406   -1.2551953     124.5772         -0.5          0.5    27424.934 
 5425000    1127.5991   -35157.611   -2.1684186    215.76842   -1.2519369    124.57394         -0.5          0.5    27422.093 
 5450000    1112.8785   -35156.361   -2.1867152    215.78672   -1.2625004     124.5845         -0.5          0.5    27431.302 
 5475000    1126.6417   -35158.411   -2.1731584    215.77316   -1.2546734    124.57667         -0.5          0.5    27424.479 
 5500000    1137.8086   -35145.298   -2.2043149    215.80431   -1.2726616    124.59466         -0.5          0.5    27440.163 
 5525000    1140.7227   -35145.898   -2.1757456    215.77575   -1.2561671    124.57817         -0.5          0.5    27425.781 
 5550000    1124.9379   -35153.002   -2.2224175    215.82242   -1.2831132    124.60511         -0.5          0.5    27449.278 
 5575000    1157.6805   -35140.837   -2.1819075    215.78191   -1.2597247    124.58172         -0.5          0.5    27428.882 
 5600000    1126.1745   -35148.262   -2.2331891    215.83319   -1.2893322    124.61133         -0.5          0.5    27454.702 
 5625000    1175.3566   -35125.298   -2.1905341    215.79053   -1.2647053    124.58671         -0.5          0.5    27433.225 
 5650000    1162.7599   -35114.208   -2.2390593    215.83906   -1.2927213    124.61472         -0.5          0.5    27457.658 
 5675000    1191.6648   -35095.505   -2.2097388    215.80974   -1.2757931    124.59779         -0.5          0.5    27442.894 
 5700000    1151.6772   -35124.269   -2.2354857    215.83549   -1.2906581    124.61266         -0.5          0.5    27455.858 
 5725000    1188.8164   -35106.597   -2.2363487    215.83635   -1.2911564    124.61316         -0.5          0.5    27456.293 
 5750000    1200.8741   -35100.443   -2.2225628    215.82256    -1.283197     124.6052         -0.5          0.5    27449.351 
 5775000    1182.8134   -35093.946   -2.2726135    215.87261   -1.3120938    124.63409         -0.5          0.5     27474.56 
 5800000    1196.8336   -35092.797   -2.2045662    215.80457   -1.2728067    124.59481         -0.5          0.5    27440.289 
 5825000    1189.7286   -35080.374   -2.3075277    215.90753   -1.3322516    124.65425         -0.5          0.5    27492.152 
 5850000    1182.7773   -35091.916   -2.1971709    215.79717    -1.268537    124.59054         -0.5          0.5    27436.566 
 5875000     1215.361   -35056.739   -2.3299439    215.92994   -1.3451936    124.66719         -0.5          0.5    27503.449 
 5900000    1226.3496   -35057.325   -2.1976779    215.79768   -1.2688297    124.59083         -0.5          0.5    27436.821 
 5925000    1228.8634   -35054.612   -2.3423319    215.94233   -1.3523457    124.67435         -0.5          0.5    27509.694 
 5950000    1235.0116   -35059.741   -2.2119417    215.81194    -1.277065    124.59906         -0.5          0.5    27444.003 
 5975000    1217.1703   -35043.873   -2.3445405    215.94454   -1.3536209    124.67562         -0.5          0.5    27510.807 
 6000000    1209.9702   -35069.123   -2.2346387    215.83464   -1.2901691    124.61217         -0.5          0.5    27455.432 
 6025000    1239.4839   -35038.592   -2.3336255    215.93363   -1.3473191    124.66932         -0.5          0.5    27505.305 
 6050000    1233.6116    -35028.02   -2.2729636    215.87296    -1.312296     124.6343         -0.5          0.5    27474.736 
 6075000    1249.2166   -35023.572   -2.3122504    215.91225   -1.3349782    124.65698         -0.5          0.5    27494.532 
 6100000    1266.0278   -35000.859   -2.3120498    215.91205   -1.3348624    124.65686         -0.5          0.5    27494.431 
 6125000    1252.9473   -35018.079    -2.295665    215.89567   -1.3254026     124.6474         -0.5          0.5    27486.174 
 6150000    1262.0018   -35002.855   -2.3475936    215.94759   -1.3553836    124.67738         -0.5          0.5    27512.347 
 6175000    1252.1083   -35014.471   -2.2825502    215.88255   -1.3178308    124.63983         -0.5          0.5    27479.566 
 6200000     1250.595   -35015.612   -2.3745098    215.97451   -1.3709237    124.69292         -0.5          0.5    27525.917 
 6225000    1286.0305   -34991.429   -2.2798172    215.87982   -1.3162529    124.63825         -0.5          0.5    27478.189 
 6250000    1273.2141   -34978.477   -2.3923307    215.99233   -1.3812126    124.70321         -0.5          0.5    27534.904 
 6275000    1272.0081   -34983.761   -2.2893076    215.88931   -1.3217322    124.64373         -0.5          0.5    27482.971 
 6300000    1306.4839   -34953.859   -2.3964164    215.99642   -1.3835715    124.70557         -0.5          0.5    27536.965 
 6325000    1319.6668   -34963.936   -2.3077684    215.90777   -1.3323905    124.65439         -0.5          0.5    27492.273 
 6350000    1312.6876   -34946.831   -2.3952615    215.99526   -1.3829047     124.7049         -0.5          0.5    27536.383 
 6375000    1301.4552   -34966.017   -2.3283139    215.92831   -1.3442525    124.66625         -0.5          0.5    27502.628 
 6400000    1274.7354   -34980.106   -2.3945146    215.99451   -1.3824734    124.70447         -0.5          0.5    27536.006 
 6425000     1314.993   -34940.969   -2.3541926    215.95419   -1.3591936    124.68119         -0.5          0.5    27515.673 
 6450000    1311.5574   -34949.214   -2.3851726    215.98517   -1.3770799    124.69908         -0.5          0.5    27531.295 
 6475000    1313.5415   -34942.735   -2.3800957     215.9801   -1.3741487    124.69615         -0.5          0.5    27528.734 
 6500000    1350.4441   -34925.007    -2.380472    215.98047    -1.374366    124.69637         -0.5          0.5    27528.924 
 6525000    1358.4298   -34916.118   -2.4038986     216.0039   -1.3878913    124.70989         -0.5          0.5    27540.739 
 6550000    1330.2868   -34920.026   -2.3778582    215.97786   -1.3728569    124.69486         -0.5          0.5    27527.606 
 6575000    1313.2246   -34923.445   -2.4250794    216.02508   -1.4001201    124.72212         -0.5          0.5    27551.423 
 6600000    1322.8294   -34928.639   -2.3825102    215.98251   -1.3755427    124.69754         -0.5          0.5    27529.952 
 6625000    1391.0822   -34873.066   -2.4357981     216.0358   -1.4063085    124.72831         -0.5          0.5    27556.831 
 6650000    1409.3602   -34866.576   -2.3938174    215.99382   -1.3820709    124.70407         -0.5          0.5    27535.654 
 6675000    1359.8748   -34894.343   -2.4409262    216.04093   -1.4092692    124.73127         -0.5          0.5    27559.418 
 6700000     1380.038   -34884.823   -2.4090101    216.00901   -1.3908424    124.71284         -0.5          0.5    27543.317 
 6725000    1359.8129   -34874.781   -2.4467473    216.04675     -1.41263    124.73463         -0.5          0.5    27562.356 
 6750000    1379.9736   -34882.805   -2.4241743    216.02417   -1.3995975     124.7216         -0.5          0.5    27550.967 
 6775000    1376.2785   -34870.853   -2.4482428    216.04824   -1.4134934    124.73549         -0.5          0.5     27563.11 
 6800000    1404.6176   -34867.532   -2.4399511    216.03995   -1.4087062    124.73071         -0.5          0.5    27558.926 
 6825000    1364.1474   -34887.575   -2.4550295    216.05503   -1.4174117    124.73941         -0.5          0.5    27566.535 
 6850000    1374.9435     -34864.9   -2.4530109    216.05301   -1.4162463    124.73825         -0.5          0.5    27565.516 
 6875000    1370.6255   -34874.798   -2.4641734    216.06417   -1.4226909    124.74469         -0.5          0.5    27571.149 
 6900000    1397.9853   -34834.624   -2.4647945    216.06479   -1.4230496    124.74505         -0.5          0.5    27571.463 
 6925000    1427.0461   -34843.947   -2.4695856    216.06959   -1.4258157    124.74782         -0.5          0.5    27573.881 
 6950000    1410.7544     -34836.3   -2.4790827    216.07908   -1.4312989     124.7533         -0.5          0.5    27578.674 
 6975000    1396.7765   -34847.068   -2.4763402    216.07634   -1.4297155    124.75172         -0.5          0.5     27577.29 
 7000000    1440.6573   -34822.619   -2.4935609    216.09356   -1.4396578    124.76166         -0.5          0.5    27585.982 
 7025000    1398.2631   -34839.867   -2.4839633    216.08396   -1.4341167    124.75612         -0.5          0.5    27581.138 
 7050000    1428.7563   -34808.784   -2.5051049     216.1051   -1.4463228    124.76832         -0.5          0.5     27591.81 
 7075000    1429.9084   -34820.354   -2.4910383    216.09104   -1.4382015     124.7602         -0.5          0.5    27584.709 
 7100000    1438.8403   -34793.917   -2.5167803    216.11678   -1.4530636    124.77506         -0.5          0.5    27597.705 
 7125000    1452.1597   -34794.978   -2.5002479    216.10025   -1.4435186    124.76552         -0.5          0.5    27589.358 
 7150000    1423.4282   -34812.081   -2.5242833    216.12428   -1.4573955     124.7794         -0.5          0.5    27601.493 
 7175000    1459.0039   -34799.919   -2.5155567    216.11556   -1.4523571    124.77436         -0.5          0.5    27597.087 
 7200000    1477.5893   -34763.211   -2.5292649    216.12926   -1.4602716    124.78227         -0.5          0.5    27604.009 
 7225000    1478.4322   -34745.753   -2.5291829    216.12918   -1.4602242    124.78222         -0.5          0.5    27603.967 
 7250000    1445.3499   -34771.553   -2.5383441    216.13834   -1.4655135    124.78751         -0.5          0.5    27608.594 
 7275000    1468.3578   -34770.281   -2.5415389    216.14154    -1.467358    124.78936         -0.5          0.5    27610.207 
 7300000    1497.4974    -34748.64   -2.5431148    216.14311   -1.4682678    124.79027         -0.5          0.5    27611.003 
 7325000    1497.0161   -34743.918   -2.5568013     216.1568   -1.4761697    124.79817         -0.5          0.5    27617.916 
 7350000    1500.2212   -34737.328    -2.548589    216.14859   -1.4714284    124.79343         -0.5          0.5    27613.768 
 7375000    1481.0676   -34766.821   -2.5689448    216.16894   -1.4831808    124.80518         -0.5          0.5     27624.05 
 7400000    1475.7149   -34756.348   -2.5583441    216.15834   -1.4770604    124.79906         -0.5          0.5    27618.695 
 7425000    1490.5694   -34719.788   -2.5775876    216.17759   -1.4881707    124.81017         -0.5          0.5    27628.416 
 7450000    1519.4569   -34720.048   -2.5706454    216.17065   -1.4841626    124.80616         -0.5          0.5    27624.909 
 7475000    1516.5145   -34706.578   -2.5864981     216.1865   -1.4933151    124.81532         -0.5          0.5    27632.917 
 7500000    1525.2251   -34710.318   -2.5839969      216.184   -1.4918711    124.81387         -0.5          0.5    27631.654 
 7525000    1524.7347   -34722.171   -2.5933998     216.1934   -1.4972998     124.8193         -0.5          0.5    27636.405 
 7550000    1532.4635   -34696.972   -2.5991653    216.19917   -1.5006286    124.82263         -0.5          0.5    27639.318 
 7575000     1542.029   -34690.623   -2.5978604    216.19786   -1.4998752    124.82188         -0.5          0.5    27638.658 
 7600000    1514.6972    -34701.08   -2.6106543    216.21065   -1.5072618    124.82926         -0.5          0.5    27645.123 
 7625000    1525.8434   -34672.985   -2.6049785    216.20498   -1.5039848    124.82598         -0.5          0.5    27642.255 
 7650000    1586.2891   -34642.201   -2.6220332    216.22203   -1.5138314    124.83583         -0.5          0.5    27650.874 
 7675000    1572.8016   -34660.433   -2.6134941    216.21349   -1.5089013     124.8309         -0.5          0.5    27646.558 
 7700000    1535.6819   -34660.733   -2.6346399    216.23464   -1.5211099    124.84311         -0.5          0.5    27657.246 
 7725000    1561.0685   -34668.965   -2.6218819    216.22188    -1.513744    124.83574         -0.5          0.5    27650.798 
 7750000    1553.0654   -34649.206   -2.6476217    216.24762   -1.5286049     124.8506         -0.5          0.5    27663.808 
 7775000    1576.3179   -34636.926   -2.6276945    216.22769   -1.5170999     124.8391         -0.5          0.5    27653.735 
 7800000    1577.0965   -34657.977   -2.6603343    216.26033   -1.5359445    124.85794         -0.5          0.5    27670.235 
 7825000    1588.0411   -34630.144   -2.6380284    216.23803   -1.5230662    124.84507         -0.5          0.5    27658.959 
 7850000    1611.4755   -34619.221   -2.6727142    216.27271   -1.5430921    124.86509         -0.5          0.5    27676.494 
 7875000    1608.1792   -34600.825   -2.6446642    216.24466   -1.5268974     124.8489         -0.5          0.5    27662.313 
 7900000    1573.9698   -34628.169   -2.6837973     216.2838   -1.5494909    124.87149         -0.5          0.5    27682.098 
 7925000    1626.6689   -34583.214   -2.6597394    216.25974    -1.535601     124.8576         -0.5          0.5    27669.934 
 7950000    1613.6366   -34615.659   -2.6861667    216.28617   -1.5508588    124.87286         -0.5          0.5    27683.296 
 7975000    1607.0005   -34615.314   -2.6790708    216.27907    -1.546762    124.86876         -0.5          0.5    27679.708 
 8000000    1623.3776   -34587.663   -2.6824997     216.2825   -1.5487417    124.87074         -0.5          0.5    27681.442 
 8025000    1632.7094   -34596.056   -2.7042914    216.30429   -1.5613232    124.88332         -0.5          0.5    27692.463 
 8050000    1630.6172    -34597.12    -2.675725    216.27572   -1.5448303    124.86683         -0.5          0.5    27678.016 
 8075000    1685.0727   -34508.039   -2.7301599    216.33016   -1.5762583    124.89826         -0.5          0.5    27705.548 
 8100000    1641.3101   -34582.063   -2.6730056    216.27301   -1.5432603    124.86526         -0.5          0.5    27676.641 
 8125000    1672.6557   -34553.465   -2.7509874    216.35099   -1.5882831    124.91028         -0.5          0.5    27716.086 
 8150000    1691.7866   -34552.237   -2.6692492    216.26925   -1.5410915    124.86309         -0.5          0.5    27674.742 
 8175000    1682.1818   -34554.235   -2.7736393    216.37364   -1.6013612    124.92336         -0.5          0.5    27727.549 
 8200000    1700.9136   -34518.608   -2.6689637    216.26896   -1.5409267    124.86293         -0.5          0.5    27674.598 
 8225000    1701.3746   -34500.695   -2.7929893    216.39299   -1.6125329    124.93453         -0.5          0.5    27737.342 
 8250000    1652.2235   -34556.517   -2.6752168    216.27522   -1.5445369    124.86654         -0.5          0.5    27677.759 
 8275000    1679.0861     -34515.8   -2.8039746    216.40397   -1.6188752    124.94088         -0.5          0.5    27742.903 
 8300000    1683.5659   -34513.148   -2.6892659    216.28927   -1.5526482    124.87465         -0.5          0.5    27684.864 
 8325000    1709.3389   -34495.482   -2.8035417    216.40354   -1.6186253    124.94063         -0.5          0.5    27742.684 
 8350000    1672.6033   -34520.947   -2.7152415    216.31524   -1.5676452    124.88965         -0.5          0.5    27698.001 
 8375000    1705.9027   -34514.359   -2.7886435    216.38864   -1.6100239    124.93202         -0.5          0.5    27735.143 
 8400000    1698.2184   -34509.178   -2.7556499    216.35565    -1.590975    124.91297         -0.5          0.5    27718.445 
 8425000    1676.0611   -34524.785   -2.7689681    216.36897   -1.5986643    124.92066         -0.5          0.5    27725.185 
 8450000    1700.4084   -34524.832   -2.7943104    216.39431   -1.6132956     124.9353         -0.5          0.5    27738.011 
 8475000    1712.0323   -34489.392   -2.7510454    216.35105   -1.5883166    124.91032         -0.5          0.5    27716.115 
 8500000    1754.1975   -34454.658   -2.8336557    216.43366   -1.6360117    124.95801         -0.5          0.5    27757.931 
 8525000    1761.9289   -34464.254   -2.7301393    216.33014   -1.5762464    124.89825         -0.5          0.5    27705.538 
 8550000    1770.1434   -34433.819   -2.8726984     216.4727   -1.6585529    124.98055         -0.5          0.5    27777.705 
 8575000     1735.039    -34471.56   -2.7175185    216.31752   -1.5689598    124.89096         -0.5          0.5    27699.153 
 8600000    1802.8371   -34407.126   -2.8942724    216.49427   -1.6710087    124.99301         -0.5          0.5    27788.634 
 8625000    1745.6852   -34451.537   -2.7255485    216.32555   -1.5735959     124.8956         -0.5          0.5    27703.215 
 8650000     1766.794   -34434.604   -2.8955846    216.49558   -1.6717663    124.99377         -0.5          0.5    27789.299 
 8675000    1795.8861   -34423.393   -2.7516181    216.35162   -1.5886472    124.91065         -0.5          0.5    27716.405 
 8700000    1777.5488   -34411.381   -2.8881884    216.48819   -1.6674961     124.9895         -0.5          0.5    27785.552 
 8725000    1778.3914   -34416.114   -2.7823105    216.38231   -1.6063675    124.92837         -0.5          0.5    27731.937 
 8750000    1748.8536   -34421.848   -2.8743494    216.47435   -1.6595062    124.98151         -0.5          0.5    27778.541 
 8775000    1742.1547   -34465.327   -2.8133085    216.41331   -1.6242642    124.94626         -0.5          0.5    27747.629 
 8800000    1825.7116   -34367.885   -2.8679127    216.46791   -1.6557899    124.97779         -0.5          0.5    27775.281 
 8825000    1825.6196   -34401.779   -2.8388717    216.43887   -1.6390231    124.96102         -0.5          0.5    27760.572 
 8850000    1786.3231   -34405.948   -2.8604615    216.46046    -1.651488    124.97349         -0.5          0.5    27771.507 
 8875000    1797.9371   -34393.092   -2.8647649    216.46476   -1.6539726    124.97597         -0.5          0.5    27773.686 
 8900000    1838.4555   -34356.217   -2.8614035     216.4614   -1.6520318    124.97403         -0.5          0.5    27771.984 
 8925000    1833.5796   -34356.614    -2.881512    216.48151   -1.6636415    124.98564         -0.5          0.5     27782.17 
 8950000     1803.363   -34385.694   -2.8653797    216.46538   -1.6543275    124.97633         -0.5          0.5    27773.998 
 8975000    1834.7359   -34372.228   -2.8966413    216.49664   -1.6723764    124.99438         -0.5          0.5    27789.835 
 9000000    1793.0886    -34405.84    -2.869446    216.46945   -1.6566752    124.97868         -0.5          0.5    27776.057 
 9025000    1843.8292   -34328.492   -2.9099791    216.50998    -1.680077    125.00208         -0.5          0.5    27796.593 
 9050000    1853.7957   -34342.531   -2.8747003     216.4747   -1.6597088    124.98171         -0.5          0.5    27778.719 
 9075000    1833.2989   -34334.334   -2.9267209    216.52672   -1.6897429    125.01174         -0.5          0.5    27805.077 
 9100000    1875.4702   -34329.881   -2.8808495    216.48085    -1.663259    124.98526         -0.5          0.5    27781.834 
 9125000    1849.7373   -34350.795   -2.9399229    216.53992    -1.697365    125.01937         -0.5          0.5    27811.768 
 9150000    1880.2272   -34303.472   -2.8894183    216.48942   -1.6682062    124.99021         -0.5          0.5    27786.175 
 9175000    1846.8184   -34324.067   -2.9560329    216.55603   -1.7066662    125.02867         -0.5          0.5    27819.935 
 9200000    1916.0713   -34296.035   -2.8961254    216.49613   -1.6720785    124.99408         -0.5          0.5    27789.573 
 9225000    1873.7957   -34300.191   -2.9658567    216.56586   -1.7123379    125.03434         -0.5          0.5    27824.915 
 9250000    1904.7547   -34309.519    -2.901641    216.50164    -1.675263    124.99726         -0.5          0.5    27792.368 
 9275000    1853.7534   -34286.953   -2.9796533    216.57965   -1.7203034     125.0423         -0.5          0.5     27831.91 
 9300000    1867.8841    -34318.24   -2.9184802    216.51848   -1.6849851    125.00699         -0.5          0.5    27800.901 
 9325000    1894.2471   -34290.505   -2.9738492    216.57385   -1.7169524    125.03895         -0.5          0.5    27828.967 
 9350000    1943.7497   -34251.307   -2.9492176    216.54922   -1.7027313    125.02473         -0.5          0.5     27816.48 
 9375000    1911.2422   -34261.112   -2.9542827    216.55428   -1.7056557    125.02766         -0.5          0.5    27819.047 
 9400000     1932.149   -34230.617   -2.9940704    216.59407   -1.7286271    125.05063         -0.5          0.5    27839.221 
 9425000    1924.5056   -34249.125   -2.9328624    216.53286   -1.6932887    125.01529         -0.5          0.5     27808.19 
 9450000    1906.5044   -34259.484   -3.0327635    216.63276   -1.7509666    125.07297         -0.5          0.5    27858.846 
 9475000    1951.6565   -34222.487   -2.9114232    216.51142   -1.6809107    125.00291         -0.5          0.5    27797.325 
 9500000    1942.5017   -34231.473   -3.0663046     216.6663   -1.7703315    125.09233         -0.5          0.5    27875.864 
 9525000    1905.1729   -34271.678   -2.9083531    216.50835   -1.6791382    125.00114         -0.5          0.5    27795.769 
 9550000    1943.6029   -34210.964   -3.0857018     216.6857   -1.7815305    125.10353         -0.5          0.5    27885.708 
 9575000    1923.5389   -34243.482   -2.9114405    216.51144   -1.6809207    125.00292         -0.5          0.5    27797.333 
 9600000     1944.063   -34219.916   -3.0993418    216.69934   -1.7894056    125.11141         -0.5          0.5    27892.631 
 9625000    1928.9093   -34234.615    -2.925788    216.52579   -1.6892043     125.0112         -0.5          0.5    27804.604 
 9650000    1927.3515   -34202.334   -3.0935495    216.69355   -1.7860614    125.10806         -0.5          0.5    27889.691 
 9675000     1994.325   -34194.478   -2.9588689    216.55887   -1.7083035     125.0303         -0.5          0.5    27821.372 
 9700000    1970.5401   -34184.373   -3.0805526    216.68055   -1.7785576    125.10056         -0.5          0.5    27883.095 
 9725000    1953.9421   -34201.792   -2.9920502    216.59205   -1.7274608    125.04946         -0.5          0.5    27838.196 
 9750000    1999.1437   -34172.333   -3.0639274    216.66393    -1.768959    125.09096         -0.5          0.5    27874.658 
 9775000    2015.2108   -34162.143   -3.0282856    216.62829   -1.7483813    125.07038         -0.5          0.5    27856.575 
 9800000    1947.9479   -34222.778    -3.049219    216.64922   -1.7604672    125.08247         -0.5          0.5    27867.195 
 9825000    1967.4086    -34166.29   -3.0580119    216.65801   -1.7655438    125.08754         -0.5          0.5    27871.656 
 9850000    2001.8188   -34157.985   -3.0435615    216.64356   -1.7572008     125.0792         -0.5          0.5    27864.324 
 9875000     1989.172   -34163.984   -3.0810564    216.68106   -1.7788485    125.10085         -0.5          0.5     27883.35 
 9900000    2014.1623   -34149.941   -3.0451584    216.64516   -1.7581228    125.08012         -0.5          0.5    27865.134 
 9925000    2032.3896   -34153.088   -3.0986988     216.6987   -1.7890343    125.11103         -0.5          0.5    27892.305 
 9950000    2054.6521    -34133.66   -3.0499461    216.64995    -1.760887    125.08289         -0.5          0.5    27867.563 
 9975000    2030.5251   -34128.271   -3.1118679    216.71187   -1.7966375    125.11864         -0.5          0.5     27898.99 
10000000    1983.6729   -34167.021   -3.0569799    216.65698   -1.7649479    125.08695         -0.5          0.5    27871.132 
10025000    2024.0929   -34118.805   -3.1213774    216.72138   -1.8021278    125.12413         -0.5          0.5    27903.818 
10050000    2058.9084   -34108.606   -3.0716032     216.6716   -1.7733907    125.09539         -0.5          0.5    27878.553 
10075000    2028.1719   -34092.221    -3.125112    216.72511    -1.804284    125.12628         -0.5          0.5    27905.714 
10100000    2021.4753   -34135.173   -3.0854518    216.68545   -1.7813862    125.10339         -0.5          0.5    27885.581 
10125000    2081.1559   -34072.907   -3.1279923    216.72799   -1.8059469    125.12795         -0.5          0.5    27907.176 
10150000    2084.6208   -34091.264   -3.1045751    216.70458    -1.792427    125.11443         -0.5          0.5    27895.288 
10175000     2061.797   -34081.846   -3.1350967     216.7351   -1.8100487    125.13205         -0.5          0.5    27910.783 
10200000    2032.2134   -34098.012   -3.1184932    216.71849   -1.8004627    125.12246         -0.5          0.5    27902.353 
10225000    2104.3245   -34044.284   -3.1371958     216.7372   -1.8112606    125.13326         -0.5          0.5    27911.849 
10250000    2077.2002   -34054.709     -3.13471    216.73471   -1.8098254    125.13183         -0.5          0.5    27910.587 
10275000    2069.3302   -34054.061   -3.1445619    216.74456   -1.8155134    125.13751         -0.5          0.5     27915.59 
10300000    2126.8714   -34029.254   -3.1476732    216.74767   -1.8173097    125.13931         -0.5          0.5     27917.17 
10325000    2104.2903   -34041.486   -3.1478501    216.74785   -1.8174118    125.13941         -0.5          0.5     27917.26 
10350000    2099.0951   -34059.452   -3.1655956     216.7656   -1.8276572    125.14966         -0.5          0.5    27926.272 
10375000      2070.24   -34063.403   -3.1547651    216.75477   -1.8214042     125.1434         -0.5          0.5    27920.771 
10400000    2107.5807   -34055.968   -3.1732759    216.77328   -1.8320915    125.15409         -0.5          0.5    27930.173 
10425000    2109.0271   -34050.427   -3.1673915    216.76739   -1.8286941    125.15069         -0.5          0.5    27927.184 
10450000    2164.4967   -34007.931   -3.1869321    216.78693   -1.8399759    125.16198         -0.5          0.5     27937.11 
10475000    2168.3052   -33993.755   -3.1693094    216.76931   -1.8298014     125.1518         -0.5          0.5    27928.158 
10500000    2125.4122   -34015.921   -3.2023225    216.80232   -1.8488615    125.17086         -0.5          0.5    27944.929 
10525000    2106.5646   -34002.543   -3.1756019     216.7756   -1.8334343    125.15543         -0.5          0.5    27931.355 
10550000    2114.3696   -34001.374   -3.2165113    216.81651   -1.8570534    125.17905         -0.5          0.5    27952.139 
10575000    2112.6147   -34028.622     -3.18561    216.78561   -1.8392125    125.16121         -0.5          0.5    27936.438 
10600000    2164.3552   -33977.582   -3.2239583    216.82396   -1.8613529    125.18335         -0.5          0.5    27955.923 
10625000    2172.6052   -33979.029   -3.1954946    216.79549   -1.8449194    125.16692         -0.5          0.5     27941.46 
10650000    2174.8149   -33979.781   -3.2343649    216.83436   -1.8673612    125.18936         -0.5          0.5    27961.211 
10675000     2156.007   -33976.892   -3.2091599    216.80916   -1.8528091    125.17481         -0.5          0.5    27948.403 
10700000     2209.893   -33988.617   -3.2345202    216.83452   -1.8674508    125.18945         -0.5          0.5     27961.29 
10725000    2200.5793   -33934.049   -3.2367671    216.83677   -1.8687481    125.19075         -0.5          0.5    27962.432 
10750000    2135.3332   -33977.404   -3.2248692    216.82487   -1.8618788    125.18388         -0.5          0.5    27956.386 
10775000    2152.1102   -33984.392   -3.2646602    216.86466   -1.8848522    125.20685         -0.5          0.5     27976.61 
10800000    2134.5865   -33983.842   -3.2153845    216.81538   -1.8564029     125.1784         -0.5          0.5    27951.566 
10825000    2217.2915   -33902.598   -3.2980258    216.89803   -1.9041158    125.22612         -0.5          0.5    27993.575 
10850000    2159.6561   -33951.844    -3.203358    216.80336   -1.8494594    125.17146         -0.5          0.5    27945.455 
10875000    2189.0659   -33936.284   -3.3236708    216.92367    -1.918922    125.24092         -0.5          0.5    28006.618 
10900000    2180.1417   -33956.224   -3.2021525    216.80215   -1.8487633    125.17076         -0.5          0.5    27944.843 
10925000    2252.6594   -33882.681   -3.3377451    216.93775   -1.9270477    125.24905         -0.5          0.5    28013.777 
10950000    2243.9178   -33883.216   -3.2119103    216.81191    -1.854397     125.1764         -0.5          0.5    27949.801 
10975000    2206.2927   -33932.999   -3.3443178    216.94432   -1.9308425    125.25284         -0.5          0.5     28017.12 
11000000     2231.266   -33921.174    -3.232373    216.83237   -1.8662112    125.18821         -0.5          0.5    27960.199 
11025000    2214.7109   -33890.057   -3.3427545    216.94275   -1.9299399    125.25194         -0.5          0.5    28016.325 
11050000    2219.6225   -33897.508   -3.2603819    216.86038   -1.8823821    125.20438         -0.5          0.5    27974.436 
11075000    2238.6774   -33909.588   -3.3305314    216.93053   -1.9228829    125.24488         -0.5          0.5    28010.107 
11100000     2244.327   -33888.088   -3.2941194    216.89412   -1.9018605    125.22386         -0.5          0.5    27991.589 
11125000    2290.9443   -33862.136   -3.3115634    216.91156   -1.9119317    125.23393         -0.5          0.5     28000.46 
11150000    2202.8505   -33880.986   -3.3406395    216.94064   -1.9287188    125.25072         -0.5          0.5    28015.249 
11175000    2262.8804     -33862.8   -3.2853747    216.88537   -1.8968117    125.21881         -0.5          0.5    27987.142 
11200000    2269.3772   -33830.951   -3.3826121    216.98261   -1.9529517    125.27495         -0.5          0.5    28036.605 
11225000    2303.0193   -33859.255   -3.2671346    216.86713   -1.8862808    125.20828         -0.5          0.5    27977.868 
11250000    2267.4447   -33840.215   -3.4150494    217.01505   -1.9716794    125.29368         -0.5          0.5    28053.116 
11275000    2328.1643   -33832.071    -3.255397     216.8554   -1.8795041     125.2015         -0.5          0.5    27971.902 
11300000     2313.694    -33819.81   -3.4361568    217.03616   -1.9838658    125.30587         -0.5          0.5    28063.862 
11325000     2337.155   -33804.082   -3.2658109    216.86581   -1.8855165    125.20752         -0.5          0.5    27977.195 
11350000     2306.001   -33779.132   -3.4377688    217.03777   -1.9847965     125.3068         -0.5          0.5    28064.682 
11375000    2267.6917   -33856.819    -3.294438    216.89444   -1.9020444    125.22404         -0.5          0.5    27991.751 
11400000    2330.3641   -33763.242   -3.4226093    217.02261   -1.9760441    125.29804         -0.5          0.5    28056.964 
11425000     2312.477   -33799.353   -3.3321669    216.93217   -1.9238272    125.24583         -0.5          0.5    28010.939 
11450000    2324.8534   -33795.904   -3.4060414    217.00604   -1.9664786    125.28848         -0.5          0.5     28048.53 
11475000    2300.6531   -33797.107   -3.3647483    216.96475    -1.942638    125.26464         -0.5          0.5    28027.515 
11500000     2326.927   -33774.545   -3.3985563    216.99856   -1.9621571    125.28416         -0.5          0.5     28044.72 
11525000    2299.2188   -33774.217   -3.3858196    216.98582   -1.9548036     125.2768         -0.5          0.5    28038.238 
11550000     2370.509    -33757.14   -3.3995992     216.9996   -1.9627592    125.28476         -0.5          0.5    28045.251 
11575000    2392.2667   -33720.264   -3.4051302    217.00513   -1.9659526    125.28795         -0.5          0.5    28048.066 
11600000    2396.8089   -33746.211   -3.3989744    216.99897   -1.9623985     125.2844         -0.5          0.5    28044.933 
11625000    2336.1195   -33763.204    -3.421428    217.02143   -1.9753621    125.29736         -0.5          0.5    28056.363 
11650000    2350.0863   -33751.503   -3.4044067    217.00441   -1.9655349    125.28753         -0.5          0.5    28047.698 
11675000    2338.6518   -33736.088   -3.4379363    217.03794   -1.9848932    125.30689         -0.5          0.5    28064.768 
11700000    2380.4209    -33741.27   -3.4081613    217.00816   -1.9677026     125.2897         -0.5          0.5    28049.609 
11725000    2341.7228   -33745.175    -3.455508    217.05551   -1.9950382    125.31704         -0.5          0.5    28073.715 
11750000    2374.6899   -33737.609   -3.4086185    217.00862   -1.9679665    125.28997         -0.5          0.5    28049.842 
11775000    2371.6858   -33696.343    -3.474245    217.07425    -2.005856    125.32786         -0.5          0.5    28083.258 
11800000    2346.8713   -33736.846   -3.4140152    217.01402   -1.9710823    125.29308         -0.5          0.5    28052.589 
11825000    2389.7651   -33699.523   -3.4860743    217.08607   -2.0126856    125.33469         -0.5          0.5    28089.283 
11850000    2363.6633   -33703.235   -3.4242226    217.02422   -1.9769756    125.29898         -0.5          0.5    28057.786 
11875000    2426.2816   -33669.615   -3.4972544    217.09725   -2.0191405    125.34114         -0.5          0.5    28094.979 
11900000    2398.6293   -33712.421   -3.4330444    217.03304   -1.9820688    125.30407         -0.5          0.5    28062.277 
11925000     2429.162   -33651.622   -3.5027596    217.10276   -2.0223189    125.34432         -0.5          0.5    28097.783 
11950000    2435.7094   -33691.912   -3.4564273    217.05643   -1.9955689    125.31757         -0.5          0.5    28074.183 
11975000     2371.772   -33692.021   -3.4895317    217.08953   -2.0146818    125.33668         -0.5          0.5    28091.044 
12000000    2453.2758   -33647.434    -3.499956    217.09996   -2.0207003     125.3427         -0.5          0.5    28096.355 
12025000    2422.7682   -33633.676   -3.4564143    217.05641   -1.9955615    125.31756         -0.5          0.5    28074.177 
12050000    2454.4869   -33650.083    -3.551294    217.15129   -2.0503402    125.37234         -0.5          0.5    28122.515 
12075000    2434.3585   -33619.529   -3.4276564    217.02766    -1.978958    125.30096         -0.5          0.5    28059.534 
12100000    2469.8152   -33579.029   -3.5940992     217.1941   -2.0750538    125.39705         -0.5          0.5    28144.337 
12125000    2504.9127   -33606.935   -3.4141774    217.01418    -1.971176    125.29318         -0.5          0.5    28052.672 
12150000    2443.8512   -33623.791    -3.619736    217.21974   -2.0898553    125.41186         -0.5          0.5     28157.41 
12175000      2491.59   -33627.434   -3.4155097    217.01551   -1.9719452    125.29395         -0.5          0.5     28053.35 
12200000    2590.4838   -33521.786   -3.6293089    217.22931   -2.0953822    125.41738         -0.5          0.5    28162.293 
12225000    2543.0152   -33588.735   -3.4381194    217.03812   -1.9849989      125.307         -0.5          0.5    28064.861 
12250000    2549.0613   -33553.802   -3.6156104    217.21561   -2.0874733    125.40947         -0.5          0.5    28155.306 
12275000    2469.2081   -33593.197   -3.4775884    217.07759   -2.0077863    125.32979         -0.5          0.5    28084.961 
12300000    2522.3533   -33562.348    -3.595098     217.1951   -2.0756305    125.39763         -0.5          0.5    28144.846 
12325000    2448.5853   -33586.429   -3.5158241    217.11582   -2.0298617    125.35186         -0.5          0.5     28104.44 
12350000    2509.9116   -33552.817    -3.578785    217.17879   -2.0662122    125.38821         -0.5          0.5    28136.529 
12375000    2486.9682   -33595.582   -3.5518194    217.15182   -2.0506436    125.37264         -0.5          0.5    28122.783 
12400000    2486.5946   -33583.368   -3.5610713    217.16107   -2.0559852    125.37799         -0.5          0.5    28127.499 
12425000    2533.9084   -33520.945   -3.5874267    217.18743   -2.0712015     125.3932         -0.5          0.5    28140.935 
12450000    2512.0928    -33534.76   -3.5519291    217.15193   -2.0507069    125.37271         -0.5          0.5    28122.839 
12475000    2486.6828   -33559.777   -3.6075132    217.20751   -2.0827984     125.4048         -0.5          0.5    28151.177 
12500000    2515.5067   -33554.882   -3.5554181    217.15542   -2.0527213    125.37472         -0.5          0.5    28124.617 
12525000    2592.8559   -33501.651   -3.6213462    217.22135   -2.0907849    125.41278         -0.5          0.5    28158.232 
12550000    2535.7826    -33529.39   -3.5682915    217.16829   -2.0601537    125.38215         -0.5          0.5    28131.179 
12575000    2533.3441   -33524.619   -3.6242314    217.22423   -2.0924507    125.41445         -0.5          0.5    28159.703 
12600000    2605.3379   -33468.035   -3.5839139    217.18391   -2.0691734    125.39117         -0.5          0.5    28139.144 
12625000    2561.2629   -33515.813   -3.6290133    217.22901   -2.0952115    125.41721         -0.5          0.5    28162.142 
12650000    2521.2874   -33529.407   -3.5970637    217.19706   -2.0767654    125.39877         -0.5          0.5    28145.849 
12675000    2530.5844   -33532.537   -3.6349108    217.23491   -2.0986165    125.42062         -0.5          0.5     28165.15 
12700000    2619.8396   -33498.819   -3.6157322    217.21573   -2.0875437    125.40954         -0.5          0.5    28155.368 
12725000    2538.3899   -33514.371   -3.6414147    217.24141   -2.1023715    125.42437         -0.5          0.5    28168.468 
12750000    2637.4104    -33442.93   -3.6304082    217.23041   -2.0960169    125.41802         -0.5          0.5    28162.854 
12775000    2589.2735     -33492.2   -3.6435056    217.24351   -2.1035786    125.42558         -0.5          0.5    28169.534 
12800000    2637.9682   -33458.017   -3.6436072    217.24361   -2.1036373    125.42564         -0.5          0.5    28169.586 
12825000    2648.8199    -33442.13    -3.649451    217.24945   -2.1070112    125.42901         -0.5          0.5    28172.567 
12850000    2690.0611   -33408.949   -3.6580337    217.25803   -2.1119664    125.43397         -0.5          0.5    28176.946 
12875000    2604.8161   -33430.149    -3.655416    217.25542   -2.1104551    125.43246         -0.5          0.5     28175.61 
12900000    2679.0233   -33422.828    -3.673382    217.27338   -2.1208278    125.44283         -0.5          0.5    28184.777 
12925000    2616.6566   -33441.936   -3.6602391    217.26024   -2.1132397    125.43524         -0.5          0.5    28178.071 
12950000    2612.8878   -33442.886   -3.6827223    217.28272   -2.1262204    125.44822         -0.5          0.5    28189.543 
12975000    2592.0647   -33441.027   -3.6711914    217.27119    -2.119563    125.44156         -0.5          0.5    28183.659 
13000000    2579.1898   -33460.362   -3.6925214    217.29252   -2.1318779    125.45388         -0.5          0.5    28194.544 
13025000    2663.6382   -33417.554   -3.6806235    217.28062   -2.1250086    125.44701         -0.5          0.5    28188.472 
13050000     2612.621   -33426.167    -3.704108    217.30411   -2.1385675    125.46057         -0.5          0.5    28200.457 
13075000    2644.1424   -33409.843   -3.6898502    217.28985   -2.1303357    125.45234         -0.5          0.5     28193.18 
13100000    2637.9081   -33419.802     -3.71161    217.31161   -2.1428988     125.4649         -0.5          0.5    28204.286 
13125000    2624.4228   -33420.561   -3.7030745    217.30307   -2.1379708    125.45997         -0.5          0.5     28199.93 
13150000    2688.8944   -33368.848   -3.7180726    217.31807   -2.1466299    125.46863         -0.5          0.5    28207.585 
13175000    2623.6504   -33392.995   -3.7159347    217.31593   -2.1453956     125.4674         -0.5          0.5    28206.494 
13200000    2652.9997   -33396.076   -3.7253411    217.32534   -2.1508264    125.47283         -0.5          0.5    28211.296 
13225000    2646.3071   -33416.622    -3.733222    217.33322   -2.1553764    125.47738         -0.5          0.5    28215.319 
13250000    2685.6027   -33367.565   -3.7261628    217.32616   -2.1513008     125.4733         -0.5          0.5    28211.715 
13275000    2681.3241   -33360.994   -3.7490808    217.34908   -2.1645325    125.48653         -0.5          0.5    28223.416 
13300000    2734.5831   -33319.179   -3.7295254    217.32953   -2.1532422    125.47524         -0.5          0.5    28213.432 
13325000    2706.5202   -33319.449   -3.7648518    217.36485   -2.1736379    125.49564         -0.5          0.5    28231.469 
13350000    2650.9739   -33383.403   -3.7347216    217.33472   -2.1562422    125.47824         -0.5          0.5    28216.084 
13375000    2740.3233   -33332.036   -3.7797522    217.37975   -2.1822407    125.50424         -0.5          0.5    28239.079 
13400000    2714.7434   -33338.214   -3.7395581    217.33956   -2.1590346    125.48103         -0.5          0.5    28218.554 
13425000    2727.6548   -33336.806   -3.7987214    217.39872   -2.1931925    125.51519         -0.5          0.5    28248.768 
13450000    2805.3545   -33256.265   -3.7385996     217.3386   -2.1584812    125.48048         -0.5          0.5    28218.064 
13475000    2719.6577   -33296.149   -3.8117977     217.4118   -2.2007421    125.52274         -0.5          0.5    28255.448 
13500000    2693.0933   -33353.133   -3.7442026     217.3442   -2.1617161    125.48372         -0.5          0.5    28220.925 
13525000    2729.9254   -33297.391   -3.8250452    217.42505   -2.2083905    125.53039         -0.5          0.5    28262.217 
13550000    2703.2962   -33318.828   -3.7551634    217.35516   -2.1680443    125.49004         -0.5          0.5    28226.522 
13575000      2702.27   -33317.145   -3.8332236    217.43322   -2.2131123    125.53511         -0.5          0.5    28266.396 
13600000    2774.2776   -33252.558   -3.7748508    217.37485   -2.1794108    125.50141         -0.5          0.5    28236.576 
13625000    2754.7651   -33253.163   -3.8288778    217.42888   -2.2106033     125.5326         -0.5          0.5    28264.175 
13650000    2770.0411   -33273.926   -3.8001533    217.40015   -2.1940192    125.51602         -0.5          0.5      28249.5 
13675000    2761.0953   -33270.882   -3.8139076    217.41391   -2.2019603    125.52396         -0.5          0.5    28256.526 
13700000    2787.2191   -33238.709   -3.8412012     217.4412   -2.2177182    125.53972         -0.5          0.5    28270.472 
13725000    2728.6687   -33297.677   -3.7897393    217.38974   -2.1880067    125.51001         -0.5          0.5     28244.18 
13750000    2743.4154   -33241.016   -3.8893487    217.48935   -2.2455162    125.56752         -0.5          0.5    28295.083 
13775000    2785.5404   -33273.051   -3.7605609    217.36056   -2.1711605    125.49316         -0.5          0.5    28229.278 
13800000    2743.1077   -33268.954   -3.9336035     217.5336   -2.2710667    125.59307         -0.5          0.5    28317.713 
13825000    2842.6982   -33228.304   -3.7465957     217.3466   -2.1630977     125.4851         -0.5          0.5    28222.147 
13850000    2825.6096   -33199.025   -3.9570084    217.55701   -2.2845795    125.60658         -0.5          0.5    28329.684 
13875000     2829.573   -33228.133   -3.7453815    217.34538   -2.1623967     125.4844         -0.5          0.5    28221.527 
13900000    2755.5597   -33232.711   -3.9661096    217.56611   -2.2898341    125.61183         -0.5          0.5     28334.34 
13925000    2844.3121   -33177.893   -3.7686316    217.36863   -2.1758202    125.49782         -0.5          0.5    28233.399 
13950000    2797.6069   -33175.705   -3.9560468    217.55605   -2.2840243    125.60602         -0.5          0.5    28329.192 
13975000     2776.997   -33248.261   -3.8063313    217.40633   -2.1975861    125.51959         -0.5          0.5    28252.656 
14000000    2866.0463    -33153.92   -3.9320512    217.53205   -2.2701705    125.59217         -0.5          0.5    28316.919 
14025000    2895.3608   -33156.083   -3.8564047     217.4564    -2.226496     125.5485         -0.5          0.5    28278.242 
14050000    2814.9984   -33172.624   -3.9040849    217.50408   -2.2540242    125.57602         -0.5          0.5    28302.617 
14075000    2833.8517    -33187.55   -3.8989085    217.49891   -2.2510355    125.57304         -0.5          0.5     28299.97 
14100000    2836.0845    -33162.48   -3.8788144    217.47881   -2.2394342    125.56143         -0.5          0.5    28289.697 
14125000    2888.7594   -33130.865   -3.9341193    217.53412   -2.2713645    125.59336         -0.5          0.5    28317.976 
14150000    2873.1079   -33149.229   -3.8685892    217.46859   -2.2335307    125.55553         -0.5          0.5     28284.47 
14175000    2857.5856   -33144.795   -3.9518835    217.55188   -2.2816207    125.60362         -0.5          0.5    28327.063 
14200000    2919.5542   -33106.622   -3.8870673    217.48707    -2.244199     125.5662         -0.5          0.5    28293.916 
14225000    2911.2423   -33088.729   -3.9467271    217.54673   -2.2786436    125.60064         -0.5          0.5    28324.425 
14250000     2848.403   -33143.872   -3.9099767    217.50998   -2.2574258    125.57943         -0.5          0.5     28305.63 
14275000    2872.5015   -33128.319   -3.9513094    217.55131   -2.2812893    125.60329         -0.5          0.5    28326.769 
14300000    2835.5729   -33121.518   -3.9200692    217.52007   -2.2632527    125.58525         -0.5          0.5    28310.791 
14325000    2893.8878   -33125.232    -3.959298     217.5593   -2.2859014     125.6079         -0.5          0.5    28330.856 
14350000    2921.6118   -33122.622   -3.9330692    217.53307   -2.2707583    125.59276         -0.5          0.5    28317.439 
14375000     2876.404   -33100.831   -3.9681929    217.56819   -2.2910369    125.61304         -0.5          0.5    28335.406 
14400000    2814.6277   -33146.422   -3.9448387    217.54484   -2.2775534    125.59955         -0.5          0.5    28323.459 
14425000    2909.1612   -33132.326   -3.9726036     217.5726   -2.2935834    125.61558         -0.5          0.5    28337.663 
14450000    2945.8982   -33061.627   -3.9615839    217.56158   -2.2872212    125.60922         -0.5          0.5    28332.025 
14475000    2879.1362   -33084.904   -3.9740755    217.57408   -2.2944332    125.61643         -0.5          0.5    28338.416 
14500000    2987.1899   -33047.871   -3.9812329    217.58123   -2.2985656    125.62057         -0.5          0.5    28342.078 
14525000    2952.2761   -33056.451   -3.9707011     217.5707    -2.292485    125.61449         -0.5          0.5    28336.689 
14550000    2932.3119   -33078.885   -4.0076084    217.60761   -2.3137935    125.63579         -0.5          0.5    28355.575 
14575000    2910.6161   -33039.193    -3.960285    217.56028   -2.2864713    125.60847         -0.5          0.5    28331.361 
14600000    2950.7665   -33047.853   -4.0418657    217.64187   -2.3335719    125.65557         -0.5          0.5    28373.111 
14625000    2963.8483   -33033.254    -3.940039    217.54004   -2.2747822    125.59678         -0.5          0.5    28321.004 
14650000     2974.332   -33026.995   -4.0786955     217.6787   -2.3548356    125.67684         -0.5          0.5    28391.969 
14675000    2991.8286     -33032.3    -3.924422    217.52442   -2.2657658    125.58777         -0.5          0.5    28313.017 
14700000    2980.6936   -32984.807    -4.112665    217.71267   -2.3744479    125.69645         -0.5          0.5    28409.369 
14725000    2986.1964    -33023.23   -3.9215552    217.52156   -2.2641106    125.58611         -0.5          0.5    28311.551 
14750000    2894.9103   -33053.122   -4.1165248    217.71652   -2.3766764    125.69868         -0.5          0.5    28411.346 
14775000    2940.9554   -33031.867   -3.9479257    217.54793   -2.2793356    125.60134         -0.5          0.5    28325.038 
14800000     3019.095   -32990.485   -4.1044047     217.7044   -2.3696788    125.69168         -0.5          0.5    28405.137 
14825000    3057.4787    -32933.36   -3.9851233    217.58512   -2.3008117    125.62281         -0.5          0.5    28344.069 
14850000     3021.747   -32969.289   -4.0778247    217.67782   -2.3543328    125.67633         -0.5          0.5    28391.523 
14875000    3021.5006   -32941.027   -4.0398223    217.63982   -2.3323922    125.65439         -0.5          0.5    28372.065 
14900000    3043.0906   -32977.849   -4.0383612    217.63836   -2.3315486    125.65355         -0.5          0.5    28371.317 
14925000    2956.3399   -32990.096   -4.0905191    217.69052    -2.361662    125.68366         -0.5          0.5    28398.025 
14950000    3069.4985   -32953.169   -4.0186962     217.6187    -2.320195     125.6422         -0.5          0.5     28361.25 
14975000    3044.9858   -32986.935   -4.1284225    217.72842   -2.3835455    125.70555         -0.5          0.5    28417.442 
15000000    3021.7978   -32979.764   -4.0050603    217.60506   -2.3123223    125.63432         -0.5          0.5    28354.271 
15025000     3072.968   -32926.876   -4.1529812    217.75298   -2.3977244    125.71972         -0.5          0.5    28430.026 
15050000    3052.3806   -32914.203   -4.0125202    217.61252   -2.3166293    125.63863         -0.5          0.5    28358.089 
15075000    2985.6482     -32967.4   -4.1509049     217.7509   -2.3965257    125.71853         -0.5          0.5    28428.962 
15100000    2996.3269   -32961.406   -4.0411536    217.64115   -2.3331608    125.65516         -0.5          0.5    28372.746 
15125000    3006.2548   -32952.389   -4.1348149    217.73481   -2.3872361    125.70924         -0.5          0.5    28420.717 
15150000    3053.1359    -32902.33   -4.0725693    217.67257   -2.3512986     125.6733         -0.5          0.5    28388.832 
15175000    3088.6135   -32872.986   -4.1270916    217.72709   -2.3827771    125.70478         -0.5          0.5     28416.76 
15200000    3034.2634   -32916.101   -4.1016123    217.70161   -2.3680666    125.69007         -0.5          0.5    28403.707 
15225000     3082.851    -32869.87   -4.1188576    217.71886   -2.3780232    125.70002         -0.5          0.5    28412.541 
15250000    3116.3777   -32909.419   -4.1210271    217.72103   -2.3792758    125.70128         -0.5          0.5    28413.653 
15275000    3047.3268    -32884.66   -4.1231589    217.72316   -2.3805066    125.70251         -0.5          0.5    28414.745 
[...]
28875000    5856.4633   -28686.013   -7.2386687    220.83867   -4.1792467    127.50125         -0.5          0.5    30033.336 
28900000    5801.6624   -28621.295   -7.2777934    220.87779   -4.2018354    127.52384         -0.5          0.5    30053.948 
28925000    5770.1813   -28536.443   -7.2973466    220.89735   -4.2131244    127.53512         -0.5          0.5    30064.251 
28950000    5847.1829   -28467.668   -7.6064671    221.20647   -4.3915952     127.7136         -0.5          0.5    30227.376 
28975000    5879.4771   -28287.452   -7.6846462    221.28465   -4.4367319    127.75873         -0.5          0.5    30268.702 
29000000    5929.0842   -28138.542   -7.7727039     221.3727   -4.4875721    127.80957         -0.5          0.5    30315.283 
29025000    5741.3958   -28108.421   -8.0571544    221.65715   -4.6517996     127.9738         -0.5          0.5    30465.998 
29050000    5766.7459   -27985.447   -8.2395603    221.83956   -4.7571117    128.07911         -0.5          0.5    30562.841 
29075000    5757.2492   -27912.316   -8.5176972     222.1177   -4.9176941    128.23969         -0.5          0.5    30710.807 
29100000    5888.3671   -27697.605   -8.9694529    222.56945   -5.1785153    128.50052         -0.5          0.5    30951.896 
29125000    5931.0917   -27568.561   -9.2694507    222.86945   -5.3517191    128.67372         -0.5          0.5    31112.518 
29150000    5812.1512   -27323.257   -9.6815756    223.28158   -5.5896595    128.91166         -0.5          0.5    31333.851 
29175000    5771.8596   -27240.177   -10.134472    223.73447   -5.8511394    129.17314         -0.5          0.5    31577.986 
29200000     5891.147   -27011.228   -10.329116    223.92912   -5.9635173    129.28552         -0.5          0.5      31683.2 
29225000      5944.89   -26916.313   -10.719305     224.3193   -6.1887927    129.51079         -0.5          0.5    31894.642 
29250000     5860.847   -26793.665   -11.185102     224.7851    -6.457721    129.77972         -0.5          0.5    32147.977 
29275000    5854.1815   -26807.506   -11.315273    224.91527   -6.5328748    129.85487         -0.5          0.5    32218.953 
29300000    5883.5876   -26846.491   -11.243422    224.84342   -6.4913916    129.81339         -0.5          0.5    32179.766 
29325000    5905.9574   -26823.718   -11.121882    224.72188   -6.4212206    129.74322         -0.5          0.5    32113.534 
29350000    5925.9459   -26680.455   -11.114809    224.71481   -6.4171371    129.73914         -0.5          0.5    32109.682 
29375000    5854.3646   -26724.339   -11.151136    224.75114   -6.4381105    129.76011         -0.5          0.5     32129.47 
29400000    5884.1844   -26654.812   -11.465022    225.06502   -6.6193326    129.94133         -0.5          0.5      32300.7 
29425000    5915.7597   -26520.504   -11.771427    225.37143   -6.7962353    130.11824         -0.5          0.5    32468.288 
29450000    5959.2466   -26474.304   -11.960096     225.5601   -6.9051638    130.22716         -0.5          0.5    32571.697 
29475000    5855.1303   -26515.066   -11.878309    225.47831   -6.8579441    130.17994         -0.5          0.5     32526.85 
29500000    5919.1086   -26435.018   -11.806576    225.40658    -6.816529    130.13853         -0.5          0.5    32487.541 
29525000    5867.0597   -26476.052   -12.001449    225.60145   -6.9290391    130.25104         -0.5          0.5    32594.384 
29550000    5879.0104   -26317.501    -12.50297    226.10297   -7.2185918    130.54059         -0.5          0.5    32870.159 
29575000    5986.5344   -26250.012   -12.997679    226.59768   -7.5042124    130.82621         -0.5          0.5    33143.328 
29600000     5929.886    -26089.07   -13.373902     226.9739    -7.721425    131.04342         -0.5          0.5    33351.827 
29625000    6071.3469   -26066.116   -13.671576    227.27158   -7.8932867    131.21529         -0.5          0.5    33517.258 
29650000    5982.3456   -26094.141   -13.880713    227.48071   -8.0140322    131.33603         -0.5          0.5     33633.73 
29675000      5968.81   -25906.269   -14.125157    227.72516   -8.1551622    131.47716         -0.5          0.5    33770.122 
29700000    5926.6636   -26052.768   -14.203076    227.80308   -8.2001486    131.52215         -0.5          0.5    33813.656 
29725000    5994.5344   -25881.937   -14.365072    227.96507   -8.2936771    131.61568         -0.5          0.5    33904.254 
29750000      5907.81    -26067.95   -14.445017    228.04502   -8.3398331    131.66183         -0.5          0.5    33949.009 
29775000    5962.9469   -25860.396   -14.591783    228.19178   -8.4245685    131.74657         -0.5          0.5    34031.248 
29800000    6023.6252   -25901.035   -14.671418    228.27142   -8.4705462    131.79255         -0.5          0.5    34075.914 
29825000    6006.1671   -25759.948   -14.831651    228.43165   -8.5630565    131.88506         -0.5          0.5    34165.872 
29850000    6098.4378   -25636.947   -14.765676    228.36568   -8.5249658    131.84697         -0.5          0.5    34128.817 
29875000    5947.7648   -25757.735   -14.433354    228.03335   -8.3330996     131.6551         -0.5          0.5    33942.478 
29900000    6018.8805   -25654.572   -13.995743    227.59574   -8.0804449    131.40244         -0.5          0.5    33697.879 
29925000    5888.4177   -25884.775   -13.546002      227.146   -7.8207866    131.14279         -0.5          0.5    33447.421 
29950000    5883.8491   -25842.046   -13.268035    226.86804   -7.6603026     130.9823         -0.5          0.5     33293.09 
29975000    6092.1579   -25762.929   -13.320864    226.92086   -7.6908035     131.0128         -0.5          0.5    33322.394 
30000000    6015.2968   -25629.773   -13.649253    227.24925   -7.8803987     131.2024         -0.5          0.5    33504.838 
30025000    6125.0017   -25537.356   -14.102492    227.70249   -8.1420764    131.46408         -0.5          0.5    33757.464 
30050000    5912.4919   -25717.204   -14.565113    228.16511   -8.4091709    131.73117         -0.5          0.5    34016.297 
30075000    5989.2377   -25634.786   -14.822654    228.42265   -8.5578623    131.87986         -0.5          0.5    34160.818 
30100000    5970.0755   -25599.204   -14.859157    228.45916   -8.5789369    131.90094         -0.5          0.5    34181.326 
30125000     5971.739   -25624.956   -14.690748    228.29075   -8.4817064    131.80371         -0.5          0.5     34086.76 
30150000    6282.8139   -25419.242   -14.602286    228.20229   -8.4306325    131.75263         -0.5          0.5    34037.138 
30175000    6146.6173   -25439.688   -14.626696     228.2267   -8.4447256    131.76673         -0.5          0.5    34050.826 
30200000     6058.956   -25668.662   -14.508099     228.1081   -8.3762539    131.69825         -0.5          0.5    33984.345 
30225000    6044.9977   -25565.768   -14.553521    228.15352   -8.4024779    131.72448         -0.5          0.5    34009.799 
30250000    6136.2209   -25492.677   -14.497158    228.09716   -8.3699371    131.69194         -0.5          0.5    33978.215 
30275000    5946.2557   -25521.254   -14.457976    228.05798    -8.347315    131.66932         -0.5          0.5    33956.266 
30300000    6086.3963   -25406.807   -14.297734    227.89773   -8.2547995     131.5768         -0.5          0.5     33866.58 
30325000    6085.6284   -25527.422   -14.171648    227.77165   -8.1820038      131.504         -0.5          0.5    33796.093 
30350000    6132.9456   -25538.598   -14.187583    227.78758   -8.1912035     131.5132         -0.5          0.5    33804.997 
30375000    6064.7749   -25507.771   -14.284899     227.8849   -8.2473893    131.56939         -0.5          0.5    33859.401 
30400000     6236.888   -25310.924   -14.698429    228.29843   -8.4861408    131.80814         -0.5          0.5     34091.07 
30425000    6075.6992   -25440.538   -15.213023    228.81302   -8.7832418    132.10524         -0.5          0.5     34380.46 
30450000    6008.4458   -25346.591   -15.657497     229.2575   -9.0398588    132.36186         -0.5          0.5    34631.401 
30475000    6217.7104   -25225.486   -15.990964    229.59096   -9.2323858    132.55439         -0.5          0.5    34820.269 
30500000    6121.7625   -25303.746   -16.212451    229.81245   -9.3602616    132.68226         -0.5          0.5    34945.998 
30525000    6176.9224   -25276.382   -16.473205     230.0732   -9.5108078    132.83281         -0.5          0.5    35094.307 
30550000    6161.8967   -25146.138   -16.666696     230.2667   -9.6225203    132.94452         -0.5          0.5    35204.563 
30575000    5955.0469    -25399.51   -16.678658    230.27866   -9.6294263    132.95143         -0.5          0.5    35211.385 
30600000     6100.671   -25237.844    -16.56479    230.16479   -9.5636847    132.88568         -0.5          0.5    35146.473 
30625000    6202.1332   -25146.487   -16.493843    230.09384   -9.5227236    132.84472         -0.5          0.5     35106.06 
30650000    6192.6521   -25263.498   -16.383127    229.98313   -9.4588015     132.7808         -0.5          0.5    35043.038 
30675000    6226.2518   -25143.581   -16.310476    229.91048   -9.4168561    132.73886         -0.5          0.5    35001.715 
30700000    6218.3018   -25232.751    -16.24311    229.84311   -9.3779624    132.69996         -0.5          0.5    34963.419 
30725000    6232.8703   -25052.612   -16.207908    229.80791   -9.3576387    132.67964         -0.5          0.5    34943.417 
30750000    6226.5691   -25195.586    -16.29723    229.89723    -9.409209    132.73121         -0.5          0.5    34994.184 
30775000    6193.7263   -25039.329    -16.34835    229.94835   -9.4387232    132.76072         -0.5          0.5    35023.255 
30800000    6283.1831    -25272.87   -16.216474    229.81647   -9.3625845    132.68458         -0.5          0.5    34948.284 
30825000    6169.1745    -25182.44    -16.13613    229.73613   -9.3161978     132.6382         -0.5          0.5    34902.648 
30850000    6258.3718   -25132.608   -16.034105    229.63411   -9.2572936    132.57929         -0.5          0.5    34844.741 
30875000     6250.464   -25211.671   -15.791755    229.39175   -9.1173726    132.43937         -0.5          0.5     34707.38 
30900000    6092.0121    -25186.01   -15.355951    228.95595   -8.8657611    132.18776         -0.5          0.5    34461.054 
30925000    6271.0941   -25128.322   -14.958769    228.55877   -8.6364482    131.95845         -0.5          0.5    34237.323 
30950000      6228.93    -25337.42   -14.728494    228.32849   -8.5034991     131.8255         -0.5          0.5    34107.944 
30975000    6301.9919   -25209.088   -14.606209    228.20621   -8.4328976     131.7549         -0.5          0.5    34039.338 
31000000    6225.4158   -25171.265   -14.871471    228.47147   -8.5860466    131.90805         -0.5          0.5    34188.246 
31025000      6242.52   -25120.505   -15.419088    229.01909   -8.9022135    132.22421         -0.5          0.5    34496.686 
31050000    6275.9674   -25097.674    -16.06598    229.66598   -9.2756966     132.5977         -0.5          0.5    34862.827 
31075000    6315.2461   -24962.933    -16.64578    230.24578   -9.6104442    132.93244         -0.5          0.5    35192.636 
31100000     6245.424   -24868.289   -16.926919    230.52692   -9.7727598    133.09476         -0.5          0.5    35353.116 
31125000    6284.9254   -24985.391   -17.112101     230.7121   -9.8796748    133.20167         -0.5          0.5    35459.021 
31150000    6262.9847   -24922.864   -17.361617    230.96162   -10.023733    133.34573         -0.5          0.5    35601.969 
31175000     6185.546   -24849.816   -17.648932    231.24893   -10.189614    133.51161         -0.5          0.5    35766.929 
31200000    6416.0116   -24890.919   -17.873944    231.47394   -10.319525    133.64152         -0.5          0.5    35896.383 
31225000    6125.9344   -24958.036   -18.025745    231.62574   -10.407167    133.72917         -0.5          0.5    35983.851 
31250000    6334.0182   -24762.545   -18.038257    231.63826   -10.414391    133.73639         -0.5          0.5    35991.065 
31275000    6356.7698   -24713.411   -18.013791    231.61379   -10.400266    133.72227         -0.5          0.5    35976.959 
31300000    6498.8678   -24675.864    -17.95781    231.55781   -10.367945    133.68995         -0.5          0.5    35944.694 
31325000    6293.5127   -24856.021   -18.019282    231.61928   -10.403436    133.72544         -0.5          0.5    35980.125 
31350000    6376.2271   -24717.347   -18.175165    231.77516   -10.493435    133.81543         -0.5          0.5    36070.049 
31375000    6274.7382   -24913.571   -18.475968    232.07597   -10.667104     133.9891         -0.5          0.5    36243.893 
31400000    6133.2706   -24864.152   -18.838407    232.43841   -10.876358    134.19836         -0.5          0.5    36453.912 
31425000    6316.5289   -24736.909   -19.260247    232.86025   -11.119907    134.44191         -0.5          0.5    36699.116 
31450000    6259.1666   -24673.609   -19.713728    233.31373   -11.381724    134.70372         -0.5          0.5    36963.629 
31475000    6332.4006   -24753.517   -20.317431    233.91743   -11.730273    135.05227         -0.5          0.5     37317.24 
31500000    6314.5463    -24544.64   -21.301024    234.90102    -12.29815    135.62015         -0.5          0.5    37896.971 
31525000    6299.7876     -24574.6   -22.329777    235.92978   -12.892101     136.2141         -0.5          0.5    38508.101 
31550000      6335.46   -24548.511   -22.944772    236.54477   -13.247168    136.56917         -0.5          0.5    38875.773 
31575000    6429.4629   -24448.268   -23.180134    236.78013   -13.383055    136.70505         -0.5          0.5    39016.945 
31600000    6341.7205   -24549.651   -23.208101     236.8081   -13.399201     136.7212         -0.5          0.5    39033.737 
31625000    6312.5492   -24664.629   -23.151002      236.751   -13.366235    136.68824         -0.5          0.5    38999.457 
31650000    6383.1933   -24441.146    -23.06884    236.66884   -13.318799     136.6408         -0.5          0.5    38950.158 
31675000    6377.8615   -24455.813   -22.913343    236.51334   -13.229023    136.55102         -0.5          0.5    38856.941 
31700000    6424.6509   -24444.886   -22.693198     236.2932   -13.101922    136.42392         -0.5          0.5    38725.159 
31725000    6335.6515   -24567.311   -22.542698     236.1427   -13.015031    136.33703         -0.5          0.5    38635.197 
31750000    6316.7214   -24565.606   -22.521039    236.12104   -13.002526    136.32453         -0.5          0.5    38622.259 
31775000    6389.0087   -24354.779   -22.529719    236.12972   -13.007538    136.32954         -0.5          0.5    38627.444 
31800000    6300.8482   -24388.448   -22.544659    236.14466   -13.016163    136.33816         -0.5          0.5    38636.369 
31825000    6330.1374   -24397.927   -22.479121    236.07912   -12.978325    136.30032         -0.5          0.5    38597.225 
31850000    6449.6658   -24372.808   -22.444385    236.04438    -12.95827    136.28027         -0.5          0.5    38576.486 
31875000    6414.4598   -24413.699   -22.366833    235.96683   -12.913495     136.2355         -0.5          0.5    38530.205 
31900000    6460.7543   -24412.062   -22.183382    235.78338    -12.80758    136.12958         -0.5          0.5    38420.837 
31925000     6453.473   -24437.013   -22.101139    235.70114   -12.760097     136.0821         -0.5          0.5    38371.856 
31950000    6685.9688   -24303.305   -22.126998      235.727   -12.775026    136.09703         -0.5          0.5    38387.254 
31975000     6452.625   -24330.973   -22.337613    235.93761   -12.896625    136.21863         -0.5          0.5    38512.775 
32000000    6299.5747   -24316.897   -22.747371    236.34737   -13.133199     136.4552         -0.5          0.5    38757.567 
32025000    6391.8437   -24148.029   -23.308848    236.90885   -13.457368    136.77937         -0.5          0.5    39094.257 
32050000     6498.055   -24053.585   -23.786481    237.38648   -13.733129    137.05513         -0.5          0.5    39381.816 
32075000    6377.9751   -24243.107   -24.081401     237.6814   -13.903401     137.2254         -0.5          0.5    39559.899 
32100000    6416.6534   -24049.193   -24.394139    237.99414   -14.083961    137.40596         -0.5          0.5     39749.18 
32125000    6575.8152   -24016.847   -24.819223    238.41922   -14.329383    137.65138         -0.5          0.5    40007.181 
32150000    6563.0067   -24090.301   -25.257066    238.85707   -14.582172    137.90417         -0.5          0.5    40273.798 
32175000    6471.3678   -24038.728   -25.656578    239.25658    -14.81283    138.13483         -0.5          0.5    40517.847 
32200000     6538.364   -24100.723   -25.939082    239.53908   -14.975934    138.29793         -0.5          0.5    40690.865 
32225000    6608.2188   -23933.655   -26.149991    239.74999   -15.097702     138.4197         -0.5          0.5    40820.275 
32250000    6543.6496   -23818.486   -26.303774    239.90377   -15.186489    138.50849         -0.5          0.5    40914.763 
32275000    6525.7218   -23926.222   -26.462353    240.06235   -15.278045    138.60004         -0.5          0.5    41012.313 
32300000    6495.8667   -24103.507   -26.637896     240.2379   -15.379394    138.70139         -0.5          0.5    41120.432 
32325000    6463.5618   -24125.796   -26.928112    240.52811    -15.54695    138.86895         -0.5          0.5    41299.494 
32350000    6415.1167   -23887.535   -27.362372    240.96237    -15.79767    139.11967         -0.5          0.5    41568.156 
Loop time of 87339.1 on 24 procs for 32250000 steps with 6400 atoms

Pair  time (%) = 62121.9 (71.1272)
Neigh time (%) = 128.924 (0.147613)
Comm  time (%) = 8711.83 (9.97471)
Outpt time (%) = 70.9167 (0.081197)
Other time (%) = 16305.5 (18.6692)

Nlocal:    266.667 ave 337 max 129 min
Histogram: 1 0 2 0 1 6 1 4 5 4
Nghost:    147.458 ave 171 max 115 min
Histogram: 1 0 0 6 1 4 5 3 2 2
Neighs:    0 ave 0 max 0 min
Histogram: 24 0 0 0 0 0 0 0 0 0
FullNghs:  3593.75 ave 4964 max 1336 min
Histogram: 1 0 2 0 5 2 4 3 4 3

Total # of neighbors = 86250
Ave neighs/atom = 13.4766
Neighbor list builds = 541847
Dangerous builds = 358
undump				1
unfix				1
#=============================================================================================

#========================================RELAX================================================
fix			1 all npt temp 6500.0 6500.0 0.001 x 0.0 0.0 1000.0 y 0.0 0.0 1000.0 couple xy
dump				1 all xyz 100000 relax6500.xyz
thermo				100000
run				100000
Memory usage per processor = 2.1304 Mbytes
Step Temp TotEng Xlo Xhi Ylo Yhi Zlo Zhi Volume 
32350000    6415.1167   -23887.535   -27.362372    240.96237    -15.79767    139.11967         -0.5          0.5    41568.156 
32400000    6408.4591   -24199.008   -27.365822    240.96582   -15.799662    139.12166         -0.5          0.5    41570.294 
32450000    6549.8642   -23882.048   -27.374556    240.97456   -15.804705    139.12671         -0.5          0.5    41575.706 
Loop time of 292.949 on 24 procs for 100000 steps with 6400 atoms

Pair  time (%) = 178.921 (61.0759)
Neigh time (%) = 1.51916 (0.518574)
Comm  time (%) = 63.8882 (21.8086)
Outpt time (%) = 0.492563 (0.168139)
Other time (%) = 48.1279 (16.4288)

Nlocal:    266.667 ave 324 max 144 min
Histogram: 2 1 0 1 2 1 1 3 7 6
Nghost:    146.5 ave 193 max 58 min
Histogram: 1 0 3 1 2 0 2 4 9 2
Neighs:    0 ave 0 max 0 min
Histogram: 24 0 0 0 0 0 0 0 0 0
FullNghs:  3589.58 ave 4570 max 1562 min
Histogram: 2 1 0 0 3 1 2 4 7 4

Total # of neighbors = 86150
Ave neighs/atom = 13.4609
Neighbor list builds = 6726
Dangerous builds = 25
undump				1
unfix				1
#=============================================================================================
