6400
Atoms. Timestep: 32400000
1 134.565 6.26966 0
1 205.957 52.3188 0
1 166.179 137.239 0
1 6.69543 131.013 0
1 67.0314 52.8627 0
1 32.5547 60.0437 0
1 126.091 138.474 0
1 174.431 23.5082 0
1 130.566 64.753 0
1 227.252 89.8438 0
1 -16.3087 89.091 0
1 193.113 25.3618 0
1 71.2098 83.2173 0
1 75.1201 114.111 0
1 118.108 76.2119 0
1 212.96 101.74 0
1 153.329 83.6343 0
1 178.434 53.0412 0
1 148.964 -14.5217 0
1 37.788 75.7675 0
1 125.928 62.6177 0
1 157.818 22.3116 0
1 86.2125 28.9751 0
1 87.2345 14.6139 0
1 -19.5599 122.604 0
1 179.099 72.8718 0
1 220.236 48.2684 0
1 187.18 47.5176 0
1 143.643 53.7611 0
1 161.024 2.95029 0
1 14.0487 48.3977 0
1 -9.34142 120.269 0
1 228.676 79.567 0
1 89.555 80.9706 0
1 -8.85919 3.6933 0
1 162.077 -2.62566 0
1 161.576 -7.4761 0
1 -2.7587 133.356 0
1 -25.0222 100.247 0
1 181.563 27.0511 0
1 187.448 55.3969 0
1 -15.5859 94.5049 0
1 106.381 22.4419 0
1 191.982 66.5946 0
1 218.867 71.8823 0
1 230.381 95.821 0
1 -10.0292 -0.161464 0
1 44.5737 79.2852 0
1 172.293 -6.12053 0
1 169.662 114.027 0
1 72.2727 107.164 0
1 188.839 -3.71601 0
1 -15.3228 108.522 0
1 50.3871 125.487 0
1 35.6378 59.0961 0
1 124.021 54.3057 0
1 94.704 136.114 0
1 227.591 23.1511 0
1 -3.76264 36.0012 0
1 93.9508 23.2332 0
1 200.05 97.2046 0
1 10.3396 69.581 0
1 148.058 90.2626 0
1 192.055 6.56672 0
1 146.577 32.8668 0
1 124.14 -9.82646 0
1 227.467 116.967 0
1 163.015 137.364 0
1 212.812 74.4057 0
1 154.978 111.546 0
1 198.725 18.1808 0
1 229.906 22.8093 0
1 -1.46415 92.3702 0
1 224.251 8.9672 0
1 8.45795 77.5816 0
1 86.894 98.419 0
1 232.907 105.08 0
1 1.0174 91.3586 0
1 135.695 131.921 0
1 11.392 117.372 0
1 238.991 22.0053 0
1 36.2821 77.3105 0
1 14.4656 87.7571 0
1 154.254 67.2066 0
1 23.4042 103.797 0
1 -19.4155 -0.554011 0
1 161.364 80.793 0
1 -9.47725 31.8664 0
1 210.759 117.475 0
1 157.4 46.7222 0
1 -14.1974 15.8019 0
1 111.872 112.995 0
1 230.364 89.9783 0
1 34.1224 -13.6075 0
1 150.686 13.2692 0
1 -13.5917 39.6124 0
1 34.3489 125.293 0
1 110.4 122.093 0
1 201.432 56.0478 0
1 168.37 -1.6871 0
1 151.804 41.1749 0
1 166.511 61.7465 0
1 183.93 103.513 0
1 15.0939 115.713 0
1 150.628 129.743 0
1 172.099 119.665 0
1 170.368 53.6987 0
1 111.856 -1.97767 0
1 127.076 110.197 0
1 61.8089 76.6101 0
1 192.515 -15.1637 0
1 95.0162 100.644 0
1 -5.83547 53.4127 0
1 228.392 86.9637 0
1 67.1669 56.31 0
1 149.38 47.1905 0
1 156.036 76.0397 0
1 28.8642 -3.60871 0
1 234.767 113.468 0
1 82.0621 16.6207 0
1 236.196 -11.6032 0
1 64.8068 67.7704 0
1 -8.61986 93.403 0
1 204.564 15.6297 0
1 24.0365 95.0068 0
1 200.643 12.1508 0
1 99.9023 52.8256 0
1 233.746 -5.9038 0
1 225.237 -6.27082 0
1 5.63876 87.0802 0
1 -1.56412 31.6592 0
1 35.1094 134.402 0
1 77.0092 38.897 0
1 117.448 49.5156 0
1 236.507 0.772511 0
1 77.8285 114.366 0
1 3.14719 57.9808 0
1 7.59707 5.599 0
1 139.332 61.9837 0
1 211.754 -12.7814 0
1 86.0095 127.082 0
1 -0.726092 131.996 0
1 88.1142 52.9815 0
1 70.6758 2.94841 0
1 122.7 34.5125 0
1 185.964 -1.10959 0
1 62.3962 114.569 0
1 164.73 1.43512 0
1 -2.72165 107.309 0
1 92.2817 -4.57929 0
1 194.76 75.6244 0
1 235.598 16.4906 0
1 135.039 106.994 0
1 70.9892 36.5949 0
1 230.49 127.033 0
1 191.469 74.0082 0
1 148.4 50.5945 0
1 203.402 41.7205 0
1 98.9623 -5.75363 0
1 220.463 -2.02006 0
1 234.713 -9.3335 0
1 216.648 -2.75023 0
1 123.378 31.6349 0
1 17.4945 84.7252 0
1 65.1278 17.8166 0
1 58.0035 23.8066 0
1 120.501 61.9463 0
1 199.113 90.133 0
1 210.001 132.43 0
1 25.508 99.8943 0
1 -7.42744 36.4639 0
1 77.2613 10.9635 0
1 87.5037 -12.5987 0
1 127.445 59.9442 0
1 196.301 78.7789 0
1 191.098 108.821 0
1 198.385 128.005 0
1 74.8794 69.642 0
1 164.32 100.393 0
1 -25.9032 123.631 0
1 159.356 66.0311 0
1 136.4 99.2725 0
1 120.154 106.76 0
1 99.1623 47.0698 0
1 215.491 59.8061 0
1 36.3868 104.337 0
1 -16.3793 72.5784 0
1 191.131 79.6457 0
1 122.608 -0.76969 0
1 193.809 128.4 0
1 28.2131 119.814 0
1 22.6076 105.749 0
1 201.156 66.8762 0
1 210.188 37.7401 0
1 125.625 66.9565 0
1 207.915 -12.1469 0
1 -16.6821 29.2564 0
1 133.173 85.491 0
1 -7.43601 119.276 0
1 207.377 108.201 0
1 209.926 55.5447 0
1 222.322 2.19621 0
1 194.19 110.504 0
1 136.705 120.481 0
1 17.6167 130.952 0
1 -23.3324 11.769 0
1 223.12 17.8935 0
1 -18.5429 93.0047 0
1 85.0613 115.651 0
1 112.631 65.6447 0
1 122.829 77.2445 0
1 -12.7806 -8.47285 0
1 237.4 106.079 0
1 96.4706 2.66935 0
1 31.0296 53.3359 0
1 71.3227 48.5648 0
1 134.247 93.1382 0
1 156.247 65.7265 0
1 96.2076 131.536 0
1 186.106 11.9134 0
1 114.145 98.7103 0
1 11.7203 119.493 0
1 182.937 3.86124 0
1 204.304 68.0741 0
1 170.126 125.639 0
1 190.176 77.5581 0
1 22.6597 75.9699 0
1 170.223 93.3325 0
1 -12.4267 130.946 0
1 115.621 109.258 0
1 -22.1434 -4.52446 0
1 108.87 54.3438 0
1 224.192 124.988 0
1 27.3606 133.896 0
1 121.579 40.0368 0
1 26.4066 107.801 0
1 236.02 11.0063 0
1 140.135 -7.36307 0
1 217.931 45.7327 0
1 223.748 -11.6828 0
1 197.911 117.855 0
1 239.398 70.9511 0
1 102.392 27.2438 0
1 -23.0167 121.838 0
1 33.6215 99.2591 0
1 103.124 -4.47277 0
1 39.9038 78.4502 0
1 -20.6334 127.799 0
1 167.917 95.5299 0
1 214.808 -13.3072 0
1 113.703 6.75135 0
1 195.178 80.6603 0
1 22.7058 132.552 0
1 94.9169 124.597 0
1 154.374 78.183 0
1 129.524 120.681 0
1 194.183 98.1565 0
1 104.05 2.36707 0
1 -24.6701 -7.13621 0
1 118.268 81.3555 0
1 200.942 112.049 0
1 105.617 26.7918 0
1 128.086 87.283 0
1 211.873 123.239 0
1 146.602 70.4143 0
1 8.6212 98.2302 0
1 238.235 24.0655 0
1 113.872 72.5333 0
1 192.28 103.772 0
1 86.4929 50.4688 0
1 36.367 73.689 0
1 42.9151 74.7233 0
1 74.3749 47.3939 0
1 91.7035 100.388 0
1 60.5886 78.4545 0
1 217.241 125.807 0
1 131.127 6.92918 0
1 -13.6856 120.742 0
1 -14.6308 -4.35912 0
1 134.98 0.206382 0
1 219.889 85.0604 0
1 91.4159 43.0408 0
1 226.141 104.091 0
1 169.745 14.9273 0
1 188.878 104.366 0
1 125.233 -2.61236 0
1 12.4578 129.029 0
1 191.55 55.4013 0
1 116.617 66.4221 0
1 127.219 4.04702 0
1 180.461 45.4235 0
1 117.046 61.0786 0
1 -0.882875 18.409 0
1 108.118 92.4909 0
1 181.641 -10.5356 0
1 1.45705 -9.22352 0
1 21.9303 110.808 0
1 46.0473 9.0502 0
1 217.784 47.8015 0
1 115.894 86.8996 0
1 183.807 -1.76075 0
1 105.97 103.365 0
1 111.686 60.2077 0
1 -24.8292 111.39 0
1 197.267 121.349 0
1 139.977 59.4853 0
1 81.3922 60.8432 0
1 186.203 128.995 0
1 143.568 106.221 0
1 29.0436 90.5413 0
1 197.712 -4.03877 0
1 191.259 14.2172 0
1 5.48358 83.4533 0
1 26.5014 87.5565 0
1 147.407 -8.39101 0
1 217.692 99.9244 0
1 239.584 68.2574 0
1 210.884 8.08557 0
1 194.58 6.21492 0
1 109.386 24.2592 0
1 69.8322 67.1853 0
1 111.997 18.2997 0
1 196.572 32.6318 0
1 133.988 130.281 0
1 12.0322 71.2759 0
1 153.075 20.8953 0
1 172.149 50.9551 0
1 234.75 36.9575 0
1 -4.51636 129.302 0
1 95.0816 94.715 0
1 124.548 24.3757 0
1 164.174 110.116 0
1 111.709 136.269 0
1 123.23 4.01335 0
1 108.514 48.783 0
1 1.70386 -3.28068 0
1 69.3041 110.946 0
1 147.934 57.8532 0
1 95.5321 31.3771 0
1 235.623 78.0843 0
1 196.032 35.1284 0
1 146.346 10.7708 0
1 192.241 126.777 0
1 -11.6675 75.7673 0
1 155.527 49.2408 0
1 117.734 84.484 0
1 134.112 120.836 0
1 48.2626 15.3444 0
1 122.971 66.2246 0
1 231.955 41.2298 0
1 129.216 94.122 0
1 131.446 134.297 0
1 137.366 91.6847 0
1 -1.0884 114.568 0
1 190.329 71.112 0
1 227.461 -8.36134 0
1 128.637 23.7125 0
1 -14.7186 44.4039 0
1 30.8892 92.914 0
1 156.233 82.7053 0
1 204.58 71.9937 0
1 136.101 13.522 0
1 184.044 58.5545 0
1 199.271 25.353 0
1 135.392 -9.7715 0
1 89.5106 44.0775 0
1 130.522 108.016 0
1 29.7769 56.7265 0
1 152.695 104.409 0
1 91.2561 56.7057 0
1 200.311 -3.45649 0
1 109.674 -0.722225 0
1 205.007 107.973 0
1 166.895 48.5956 0
1 238.493 10.3253 0
1 231.395 120.192 0
1 135.166 33.4812 0
1 144.096 120.62 0
1 200.048 126.4 0
1 188.671 93.0323 0
1 177.467 40.9114 0
1 32.6232 50.0772 0
1 19.4477 74.4193 0
1 147.494 76.9364 0
1 139.564 68.8663 0
1 162.233 43.1175 0
1 194.893 95.3807 0
1 -20.6205 59.2126 0
1 108.119 131.591 0
1 166.863 81.3605 0
1 174.422 132.106 0
1 -23.5759 16.3958 0
1 122.473 24.4959 0
1 221.894 98.2061 0
1 163.259 95.6553 0
1 176.635 54.1323 0
1 -22.8977 4.22862 0
1 114.007 30.0756 0
1 -6.17383 -3.62249 0
1 -23.063 71.2851 0
1 28.211 88.492 0
1 0.55784 14.4316 0
1 -21.209 28.686 0
1 225.963 86.6416 0
1 -24.4298 89.0111 0
1 209.344 57.6474 0
1 88.6925 37.7989 0
1 -2.35662 99.8305 0
1 20.3747 112.776 0
1 108.735 118.92 0
1 98.3909 43.3086 0
1 119.868 22.8463 0
1 75.5846 71.7866 0
1 29.7186 116.859 0
1 117.859 105.648 0
1 159.654 -14.8938 0
1 84.5006 12.4933 0
1 141.795 16.4391 0
1 184.529 49.1487 0
1 151.669 65.974 0
1 93.0375 86.9374 0
1 154.691 122.281 0
1 -19.2006 136.274 0
1 232.26 37.259 0
1 133.648 74.53 0
1 121.033 104.676 0
1 211.386 49.7618 0
1 70.3778 64.7247 0
1 151.046 58.2473 0
1 96.7254 56.0392 0
1 130.194 36.3743 0
1 162.607 36.5985 0
1 111.751 10.2308 0
1 88.3797 106.346 0
1 214.343 8.24984 0
1 173.369 108.537 0
1 31.9629 87.4717 0
1 193.293 21.8422 0
1 194.447 -2.92755 0
1 -4.26233 23.8932 0
1 131.248 87.001 0
1 93.3416 39.1837 0
1 223.025 21.5242 0
1 90.7625 134.459 0
1 66.7473 96.4655 0
1 109.845 114.558 0
1 2.34529 43.8823 0
1 99.5511 -3.24992 0
1 23.3386 83.796 0
1 88.8154 49.5737 0
1 205.395 62.6361 0
1 85.7069 -14.3403 0
1 -26.5857 7.88424 0
1 23.1582 99.3971 0
1 74.6071 50.1618 0
1 -25.5997 43.2164 0
1 159.202 -12.7066 0
1 -25.5231 62.9767 0
1 167.052 12.873 0
1 152.719 47.3864 0
1 138.453 21.5136 0
1 139.298 -10.2952 0
1 44.6004 6.36103 0
1 125.21 -6.91695 0
1 19.3209 97.7923 0
1 123.71 6.35637 0
1 137.9 118.656 0
1 195.999 127.077 0
1 -1.33381 73.632 0
1 48.2096 78.9812 0
1 191.628 37.6917 0
1 204.588 36.3715 0
1 143.552 1.75415 0
1 183.843 62.9243 0
1 173.232 47.3813 0
1 204.169 8.00361 0
1 156.576 25.241 0
1 193.164 71.3716 0
1 -5.46121 60.2785 0
1 185.648 43.4287 0
1 75.5417 55.7021 0
1 222.948 96.0362 0
1 196.51 123.556 0
1 132.276 123.863 0
1 158.392 11.1468 0
1 -21.944 106.707 0
1 228.288 -6.23232 0
1 115.013 100.899 0
1 129.012 70.2492 0
1 189.556 -7.9077 0
1 -17.8882 24.0973 0
1 29.9647 76.9998 0
1 84.7202 47.7664 0
1 85.4762 33.5199 0
1 24.7043 127.895 0
1 -5.5297 135.589 0
1 130.151 59.2169 0
1 110.59 15.7075 0
1 206.286 11.6232 0
1 195.076 48.2439 0
1 127.061 1.22425 0
1 232.665 55.1532 0
1 72.7643 4.58006 0
1 -19.4263 76.3352 0
1 50.9831 69.8523 0
1 3.94103 101.008 0
1 130.756 17.7073 0
1 78.7879 117.85 0
1 226.53 61.1335 0
1 141.548 -9.65645 0
1 78.9572 66.0859 0
1 162.148 7.89272 0
1 30.5901 119.92 0
1 227.446 18.0022 0
1 168.689 63.1219 0
1 66.6688 89.3663 0
1 100.362 88.7197 0
1 32.3247 57.8665 0
1 233.222 86.3155 0
1 219.018 60.6479 0
1 30.0723 -5.73093 0
1 223.224 39.7944 0
1 45.8773 124.421 0
1 158.65 106.717 0
1 72.1829 85.3817 0
1 53.6097 10.4429 0
1 123.942 20.7189 0
1 99.2187 24.8614 0
1 192.198 76.3244 0
1 176.745 37.424 0
1 9.24278 72.6852 0
1 227.165 -11.4698 0
1 99.2234 102.671 0
1 129.219 62.3923 0
1 -4.4291 55.5636 0
1 96.4485 53.4723 0
1 161.467 135.902 0
1 42.8593 113.729 0
1 123.018 93.2692 0
1 120.945 123.471 0
1 238.419 101.64 0
1 159.437 -3.02327 0
1 159.16 93.3345 0
1 144.357 70.1025 0
1 206.173 -3.31057 0
1 136.761 75.3191 0
1 129.862 128.939 0
1 32.5217 127.536 0
1 45.8192 43.627 0
1 155.603 -7.73335 0
1 167.14 42.3834 0
1 238.6 -0.00505772 0
1 113.111 48.287 0
1 10.7968 97.4034 0
1 157.115 32.5163 0
1 171.516 112.24 0
1 -19.5008 53.3205 0
1 155.192 102.939 0
1 75.3239 111.883 0
1 88.6004 18.1682 0
1 154.575 116.667 0
1 208.806 15.1814 0
1 226.21 76.5173 0
1 -12.3991 112.355 0
1 8.30575 80.1519 0
1 147.395 106.495 0
1 36.7259 92.2445 0
1 230.675 -6.081 0
1 188.764 45.824 0
1 26.1746 58.295 0
1 119.497 8.10918 0
1 187.175 105.526 0
1 -12.9492 128.83 0
1 26.3668 117.053 0
1 76.0255 5.94036 0
1 133.18 97.7138 0
1 218.965 -15.3576 0
1 123.888 133.747 0
1 137.967 41.528 0
1 165.19 44.2591 0
1 28.2844 102.724 0
1 149.622 115.432 0
1 102.383 16.0338 0
1 209.171 46.2789 0
1 101.698 80.8776 0
1 49.2378 95.2383 0
1 145.814 90.5748 0
1 152.744 36.2725 0
1 176.255 56.7189 0
1 167.702 104.292 0
1 197.551 -13.0934 0
1 133.371 68.8344 0
1 100.857 85.4813 0
1 184.537 100.532 0
1 -12.3503 27.2017 0
1 223.763 121.863 0
1 177.563 64.5702 0
1 107.222 36.0638 0
1 210.551 59.856 0
1 42.7775 45.1173 0
1 177.377 108.418 0
1 213.642 10.8176 0
1 152.378 32.4222 0
1 106.51 67.3077 0
1 196.32 58.9083 0
1 80.5825 84.2308 0
1 25.4133 70.2578 0
1 77.8236 119.866 0
1 158.865 41.144 0
1 49.6834 50.08 0
1 -11.5231 -3.2438 0
1 226.567 11.941 0
1 182.222 90.7669 0
1 144.296 -14.5446 0
1 -14.4153 21.8126 0
1 48.8211 7.30717 0
1 145.981 99.12 0
1 85.9461 52.6771 0
1 230.244 51.3619 0
1 29.7856 -15.2383 0
1 166.06 65.2881 0
1 109.456 94.4468 0
1 168.931 97.4622 0
1 184.952 95.5875 0
1 141.393 42.5969 0
1 92.4131 121.336 0
1 219.891 112.629 0
1 170.609 90.7745 0
1 172.988 67.8265 0
1 136.306 -3.3702 0
1 -17.0117 53.3862 0
1 -22.6343 90.0839 0
1 201.352 75.0191 0
1 173.764 13.668 0
1 -19.0235 2.67933 0
1 217.807 103.213 0
1 93.8377 6.77678 0
1 179.139 87.1544 0
1 235.943 38.9853 0
1 240.216 81.3836 0
1 201.027 48.1967 0
1 222.731 114.453 0
1 87.2817 130.231 0
1 63.6482 61.0682 0
1 106.636 13.4517 0
1 42.8371 50.0982 0
1 126.037 -4.74371 0
1 87.0681 86.8083 0
1 -21.0126 68.7409 0
1 148.012 8.26006 0
1 183.952 86.4923 0
1 172.958 76.4508 0
1 132.416 -14.1914 0
1 63.9984 25.6016 0
1 -14.4703 116.744 0
1 73.1167 15.8082 0
1 201.598 72.9482 0
1 137.003 11.5938 0
1 4.31014 135.234 0
1 59.2689 18.0778 0
1 87.5208 83.6309 0
1 206.121 28.462 0
1 208.304 100.703 0
1 143.258 63.1375 0
1 94.9395 46.2366 0
1 98.3709 117.28 0
1 2.50556 109.599 0
1 215.652 131.693 0
1 103.836 98.206 0
1 139.507 91.56 0
1 102.96 124.638 0
1 165.877 86.6331 0
1 240.317 112.541 0
1 -24.018 9.99005 0
1 -6.31258 92.8358 0
1 158.044 15.2198 0
1 25.6573 61.293 0
1 208.213 86.1771 0
1 120.676 97.0126 0
1 174.161 15.9504 0
1 167.358 17.5852 0
1 99.4727 114.991 0
1 -20.5347 116.605 0
1 226.841 56.5562 0
1 202.755 105.007 0
1 190.687 92.3864 0
1 92.0994 49.4 0
1 -14.751 113.324 0
1 142.505 136.24 0
1 170.828 18.1709 0
1 -14.1453 35.3378 0
1 -12.9153 136.104 0
1 87.2362 116.737 0
1 106.294 33.9192 0
1 4.02512 74.7732 0
1 100.937 -6.78327 0
1 -12.8855 3.24796 0
1 225.729 7.24558 0
1 49.7781 10.402 0
1 191.352 101.498 0
1 60.95 24.8224 0
1 165.281 -7.42437 0
1 120.541 71.8908 0
1 158.888 44.3603 0
1 203.168 109.622 0
1 -9.19838 -5.71473 0
1 190.067 -14.5652 0
1 104.52 57.7562 0
1 232.134 135.157 0
1 118.461 103.236 0
1 191 49.5662 0
1 34.4607 117.103 0
1 233.283 16.3528 0
1 109.583 28.0186 0
1 63.7482 12.6751 0
1 225.894 106.439 0
1 -15.178 76.3173 0
1 118.745 45.8197 0
1 189.548 122.549 0
1 232.075 11.4381 0
1 196.77 102.063 0
1 7.82778 84.0245 0
1 81.9265 124.995 0
1 -15.1142 84.9788 0
1 215.131 57.6296 0
1 44.4199 111.609 0
1 100.444 3.1016 0
1 161.768 97.7381 0
1 107.286 98.996 0
1 103.817 22.5928 0
1 209.454 1.52874 0
1 85.2425 36.1679 0
1 117.826 78.9996 0
1 72.2574 25.5165 0
1 154.304 22.6547 0
1 45.1545 66.959 0
1 119.071 38.9511 0
1 186.525 -13.5927 0
1 103.24 7.20442 0
1 51.9413 72.8835 0
1 145.72 125.965 0
1 169.168 -10.9577 0
1 186.807 91.4921 0
1 56.9396 55.3557 0
1 144.727 12.7064 0
1 166.231 -9.56226 0
1 36.3069 64.2594 0
1 230.251 124.883 0
1 0.41488 67.4251 0
1 175.431 10.9832 0
1 92.6536 19.9125 0
1 238.477 56.1495 0
1 177.389 112.421 0
1 98.4188 58.901 0
1 13.4048 98.8783 0
1 182.641 73.3763 0
1 132.626 111.03 0
1 235.926 -5.83931 0
1 98.9019 105.764 0
1 226.541 40.3067 0
1 155.939 99.5204 0
1 207.745 40.155 0
1 134.471 40.9981 0
1 92.4852 117.257 0
1 162.38 116.012 0
1 94.7078 20.62 0
1 -3.85689 20.8857 0
1 -6.61211 86.7234 0
1 81.485 41.7404 0
1 82.1697 3.15728 0
1 220.37 41.1504 0
1 103.776 68.9308 0
1 55.1477 107.627 0
1 128.971 114.022 0
1 78.0428 69.7891 0
1 -1.65635 34.6719 0
1 60.8449 36.2877 0
1 200.813 19.7418 0
1 42.8863 77.5035 0
1 216.844 18.6034 0
1 232.656 44.156 0
1 228.618 58.4713 0
1 120.929 59.6807 0
1 1.38495 34.189 0
1 193.842 52.5435 0
1 80.8365 57.5447 0
1 210.352 25.0142 0
1 229.553 48.3372 0
1 123.846 61.1302 0
1 143.996 89.1933 0
1 174.778 122.032 0
1 78.2044 28.3801 0
1 46.7829 111.171 0
1 -18.8727 86.4148 0
1 163.611 -13.3012 0
1 187.213 132.287 0
1 60.4586 6.10288 0
1 105.844 41.0769 0
1 0.80664 29.7852 0
1 232.712 29.9045 0
1 5.84751 2.6891 0
1 99.2482 110.081 0
1 230.891 86.5151 0
1 171.956 84.5456 0
1 -0.269721 106.649 0
1 217.675 76.5177 0
1 149.773 137.906 0
1 -13.5065 78.291 0
1 138.676 1.13684 0
1 137.229 109.489 0
1 65.5281 87.1849 0
1 194.991 68.6013 0
1 164.251 82.2112 0
1 104.233 53.8243 0
1 174.009 112.239 0
1 141.303 131.059 0
1 29.9269 111.465 0
1 180.745 13.2946 0
1 -3.26873 111.225 0
1 138.356 71.8573 0
1 88.6576 132.212 0
1 113.875 39.4606 0
1 29.8459 87.083 0
1 153.082 -5.94405 0
1 228.793 98.5884 0
1 187.251 95.388 0
1 151.02 102.193 0
1 165.558 29.8309 0
1 38.7879 93.2466 0
1 141.639 118.235 0
1 194.043 61.2149 0
1 8.47158 95.4112 0
1 17.6616 91.3972 0
1 -3.98555 118.225 0
1 222.933 25.0909 0
1 50.5492 109.58 0
1 49.5662 115.399 0
1 -12.7196 71.6186 0
1 79.2641 93.2883 0
1 175.393 114.373 0
1 56.076 70.24 0
1 79.506 49.2433 0
1 218.639 -3.48787 0
1 94.8498 138.611 0
1 192.672 0.041592 0
1 116.047 6.67298 0
1 79.5677 46.0096 0
1 233.966 -13.7669 0
1 115.588 127.346 0
1 -27.1674 27.5679 0
1 47.0784 100.094 0
1 153.087 15.9683 0
1 67.8222 68.0612 0
1 137.224 51.8372 0
1 -27.34 -10.5934 0
1 108.645 4.72151 0
1 12.8563 115.802 0
1 154.879 -15.4015 0
1 219.168 23.6515 0
1 69.4762 121.701 0
1 -27.1166 105.63 0
1 119.984 120.137 0
1 237.549 45.1451 0
1 1.68229 39.813 0
1 178.874 37.7696 0
1 19.8802 42.5131 0
1 206.524 138.997 0
1 107.175 78.0631 0
1 194.765 11.9618 0
1 95.0286 97.3573 0
1 201.797 15.1735 0
1 82.9787 123.287 0
1 196.9 111.142 0
1 -13.287 133.786 0
1 188.574 14.5228 0
1 108.085 40.7852 0
1 75.6305 62.5372 0
1 -4.3266 98.785 0
1 189.261 129.385 0
1 213.842 134.976 0
1 65.2295 116.08 0
1 141.563 71.7064 0
1 -6.51684 10.8743 0
1 114.386 66.9949 0
1 209.286 -5.70935 0
1 27.1733 96.064 0
1 235.38 48.5446 0
1 184.743 -6.46863 0
1 104.34 29.6036 0
1 222.174 5.86734 0
1 226.381 135.948 0
1 -5.85686 132.379 0
1 213.883 97.2639 0
1 158.708 128.802 0
1 -0.986448 11.6495 0
1 194.653 118.088 0
1 94.749 -11.3883 0
1 148.332 79.603 0
1 210.076 67.8914 0
1 156.694 52.1192 0
1 160.629 82.7761 0
1 3.56548 -14.0398 0
1 123.67 114.927 0
1 109.416 30.6831 0
1 141.854 123.209 0
1 113.723 57.7072 0
1 -16.5192 136.834 0
1 146.864 110.335 0
1 107.167 31.8217 0
1 183.697 75.398 0
1 235.024 109.541 0
1 19.6107 90.3811 0
1 142.593 79.7692 0
1 158.959 135.404 0
1 182.521 47.7589 0
1 80.2448 114.188 0
1 171.368 96.326 0
1 228.351 51.8753 0
1 204.279 125.643 0
1 97.7061 87.2398 0
1 237.759 2.69792 0
1 86.1472 77.5238 0
1 72.0872 94.4545 0
1 53.4038 115.946 0
1 123.434 -4.14805 0
1 76.2413 76.9691 0
1 106.452 54.7364 0
1 21.697 128.819 0
1 223.685 127.189 0
1 46.1824 -5.28133 0
1 23.1523 137.322 0
1 142.072 52.0966 0
1 2.62386 4.85114 0
1 53.5482 5.96377 0
1 -27.3048 124.938 0
1 -23.0093 30.1859 0
1 233.411 61.5455 0
1 65.9497 30.3859 0
1 66.2688 79.5793 0
1 189.888 126.247 0
1 130.034 2.68164 0
1 158.067 20.0471 0
1 30.1417 129.639 0
1 222.659 135.067 0
1 123.228 125.804 0
1 205.611 33.3513 0
1 217.29 41.6757 0
1 136.366 46.3229 0
1 144.35 82.1442 0
1 114.965 35.9394 0
1 83.08 106.868 0
1 166.851 51.2727 0
1 237.574 6.24479 0
1 76.9297 45.5697 0
1 77.5583 87.609 0
1 26.8702 122.061 0
1 69.1218 105.662 0
1 42.5081 84.0772 0
1 -26.2847 17.7327 0
1 153.049 26.4343 0
1 208.538 78.191 0
1 6.27619 -14.1796 0
1 94.6211 -8.13114 0
1 89.6476 74.0738 0
1 124.556 128.726 0
1 187.167 122.47 0
1 210.232 32.8936 0
1 193.559 14.1854 0
1 104.835 101.253 0
1 120.94 83.609 0
1 66.6133 46.7286 0
1 220.936 82.2155 0
1 230.194 56.8641 0
1 215.604 104.312 0
1 176.948 70.781 0
1 96.6203 109.448 0
1 122.56 63.366 0
1 36.9826 86.2608 0
1 75.2546 29.1502 0
1 235.066 41.8798 0
1 141.644 101.493 0
1 172.722 60.4155 0
1 0.405901 77.5479 0
1 91.3912 97.1783 0
1 126.962 131.972 0
1 133.83 101.558 0
1 99.6123 55.5932 0
1 229.841 137.612 0
1 136.063 72.4207 0
1 154.094 87.7838 0
1 198.732 47.6732 0
1 18.7152 54.0606 0
1 185.399 29.2526 0
1 -12.9913 8.40004 0
1 232.494 57.859 0
1 -2.78035 12.9909 0
1 190.576 19.5651 0
1 220.708 108.065 0
1 196.605 98.3216 0
1 151.925 138.024 0
1 181.487 33.5253 0
1 77.8809 7.52489 0
1 152.699 -9.58717 0
1 -4.45979 109.151 0
1 113.885 134.985 0
1 -7.06113 104.713 0
1 31.1741 99.9656 0
1 -19.8683 83.0609 0
1 87.9995 57.3714 0
1 120.306 114.26 0
1 238.242 -9.35193 0
1 55.4315 18.9806 0
1 95.7102 28.8589 0
1 188.973 -12.7351 0
1 117.802 95.5116 0
1 72.5206 113.743 0
1 237.407 127.738 0
1 133.519 -1.79181 0
1 110.947 48.4227 0
1 -0.77765 109.207 0
1 81.8102 87.3497 0
1 88.5419 134.359 0
1 128.122 30.7934 0
1 51.5092 103.116 0
1 143.555 114.156 0
1 -6.89007 29.9217 0
1 140.234 40.2767 0
1 188.563 75.2916 0
1 -20.1552 89.7505 0
1 144.606 102.656 0
1 154.7 32.5426 0
1 141.898 9.12692 0
1 140.311 104.856 0
1 128.341 -4.75725 0
1 117.511 93.3907 0
1 69.1711 103.076 0
1 239.071 -4.399 0
1 -17.6348 70.3495 0
1 142.342 133.122 0
1 96.5277 103.556 0
1 170.088 104.78 0
1 164.621 91.181 0
1 128.569 84.9551 0
1 -24.0183 26.5522 0
1 231.229 129.446 0
1 126.176 112.684 0
1 65.83 33.6281 0
1 211.048 18.2273 0
1 237.91 54.0711 0
1 97.8784 -11.4692 0
1 111.417 55.1869 0
1 218.308 106.221 0
1 62.1739 28.2285 0
1 106.68 118.029 0
1 39.0431 89.1108 0
1 234.582 119.254 0
1 59.8398 108.91 0
1 120.805 116.992 0
1 83.8043 42.4543 0
1 32.7592 130.028 0
1 131.965 89.4786 0
1 11.7573 79.5311 0
1 88.2038 6.43061 0
1 113.457 2.16594 0
1 22.1414 -0.64012 0
1 202.142 7.1901 0
1 144.837 55.9303 0
1 169.05 50.5941 0
1 151.761 131.904 0
1 147.861 134.975 0
1 172.275 99.6482 0
1 85.222 17.91 0
1 201.012 59.0342 0
1 157.231 138.246 0
1 156.54 85.9094 0
1 153.584 119.42 0
1 140.847 -14.4424 0
1 146.991 128.149 0
1 212.293 64.5801 0
1 170.221 29.1 0
1 -20.9462 85.203 0
1 215.117 92.523 0
1 22.1021 72.7746 0
1 164.592 52.4112 0
1 91.6404 7.31631 0
1 239.008 133.791 0
1 -1.12932 1.80202 0
1 203.621 94.9149 0
1 63.2288 90.8593 0
1 97.0534 70.9963 0
1 113.751 122.292 0
1 82.1311 47.0724 0
1 75.2761 105.614 0
1 201.284 91.2849 0
1 133.693 25.2109 0
1 91.2057 65.9991 0
1 91.8258 75.433 0
1 -26.9652 -4.81397 0
1 -3.32421 64.9843 0
1 100.829 111.719 0
1 91.074 9.48436 0
1 10.6077 77.8422 0
1 -25.318 39.0742 0
1 75.5175 25.8673 0
1 233.129 34.0267 0
1 70.734 6.40229 0
1 -11.9582 15.3981 0
1 130.416 68.488 0
1 238.37 -6.92069 0
1 130.654 -0.299504 0
1 -10.8184 89.2562 0
1 202.041 17.7161 0
1 142.406 -5.23778 0
1 143.328 -11.6411 0
1 135.445 137.629 0
1 -1.23161 16.2095 0
1 153.266 73.6504 0
1 187.157 50.756 0
1 170.756 23.1143 0
1 162.13 -14.9567 0
1 121.891 7.49333 0
1 -1.90185 122.719 0
1 213.266 54.4913 0
1 -24.871 21.6834 0
1 31.0371 75.066 0
1 -0.386124 98.8722 0
1 176.202 90.4552 0
1 -17.1704 -4.41398 0
1 -0.590951 86.674 0
1 -1.61683 78.1111 0
1 -21.2914 20.3074 0
1 193.126 39.467 0
1 226.832 -1.22853 0
1 126.406 89.7815 0
1 -19.5773 30.0287 0
1 13.0634 123.654 0
1 115.741 18.6852 0
1 129.408 101.463 0
1 110.015 21.3207 0
1 198.784 35.7189 0
1 113.235 79.1406 0
1 166.908 57.9349 0
1 149.465 69.3303 0
1 107.108 63.6989 0
1 140.345 84.8748 0
1 124.24 136.168 0
1 107.12 105.365 0
1 -1.63737 24.3234 0
1 -10.3462 5.8817 0
1 233.377 108.35 0
1 169.014 -7.37923 0
1 220.791 77.5741 0
1 122.437 88.434 0
1 186.131 103.059 0
1 216.579 95.1863 0
1 125.609 22.312 0
1 9.29355 49.6106 0
1 172.006 45.5953 0
1 210.502 137.953 0
1 219.128 132.283 0
1 -3.78298 96.3789 0
1 158.24 117.311 0
1 34.6568 128.774 0
1 192.443 29.1288 0
1 73.5119 126.115 0
1 -11.5496 34.3766 0
1 65.1338 6.13948 0
1 54.0087 21.0606 0
1 63.6358 74.2079 0
1 197.195 -10.9794 0
1 112.775 0.116693 0
1 -22.1601 -10.0683 0
1 59.9177 15.1331 0
1 -17.8119 65.2732 0
1 195.022 133.584 0
1 110.529 5.53979 0
1 99.4635 8.53698 0
1 126.46 117.2 0
1 -16.3812 132.583 0
1 118.528 129.241 0
1 181.426 54.6852 0
1 138.817 130.39 0
1 72.0472 12.3195 0
1 204.488 43.8881 0
1 180.96 132.048 0
1 136.434 85.6488 0
1 -7.61928 59.5475 0
1 -0.24734 136.851 0
1 197.423 61.9147 0
1 133.471 50.712 0
1 128.352 107.099 0
1 208.288 129.926 0
1 236.736 66.1095 0
1 228.229 94.3733 0
1 167.423 124.068 0
1 196.677 15.0048 0
1 157.221 79.8086 0
1 103.043 18.196 0
1 19.7825 84.1959 0
1 84.7079 26.8293 0
1 141.778 -1.50336 0
1 181.953 8.08582 0
1 24.513 124.595 0
1 3.5642 33.2986 0
1 227.839 70.2364 0
1 239.7 41.7663 0
1 71.8907 34.3757 0
1 124.498 103.793 0
1 96.4204 25.5421 0
1 233.686 102.326 0
1 -12.6112 37.3646 0
1 135.996 60.742 0
1 -24.2043 106.441 0
1 98.887 38.0598 0
1 132.003 56.3457 0
1 231.316 101.439 0
1 -7.93682 115.69 0
1 93.9254 102.899 0
1 158.37 82.1207 0
1 114.895 77.3574 0
1 172.504 116.705 0
1 146.814 42.0419 0
1 139.267 114.447 0
1 5.93319 95.0897 0
1 108.518 10.8494 0
1 30.7967 51.2004 0
1 102.141 57.3264 0
1 95.6919 106.478 0
1 147.43 -5.98817 0
1 206.67 65.8849 0
1 121.518 130.39 0
1 237.758 51.7702 0
1 205.917 9.42281 0
1 71.8346 121.73 0
1 -23.372 19.3524 0
1 80.4156 6.98919 0
1 204.897 -11.5929 0
1 161.051 99.6601 0
1 177.307 94.8917 0
1 113.437 95.4708 0
1 154.634 -12.6571 0
1 -2.59517 -11.6567 0
1 -7.13029 74.1846 0
1 107.665 89.6435 0
1 200.189 28.6314 0
1 210.804 75.8426 0
1 75.729 22.7419 0
1 15.2833 93.863 0
1 189.551 -0.448602 0
1 75.4449 53.3178 0
1 3.28811 66.4883 0
1 223.802 79.813 0
1 111.461 101.995 0
1 -20.0716 109.147 0
1 193.551 108.348 0
1 7.32742 105.145 0
1 49.5938 62.8444 0
1 214.559 128.548 0
1 160.961 18.8838 0
1 -0.166134 -13.3741 0
1 236.606 72.4224 0
1 84.2225 100.422 0
1 209.725 124.682 0
1 77.5892 52.1725 0
1 222.682 92.2274 0
1 82.7614 19.7257 0
1 179.755 8.54885 0
1 120.268 -7.12733 0
1 184.443 -9.52373 0
1 68.6836 99.6143 0
1 95.5821 81.6445 0
1 181.629 109.482 0
1 186.702 126.512 0
1 222.851 112.449 0
1 -4.26145 88.1854 0
1 108.943 38.674 0
1 173.438 -0.478273 0
1 204.376 38.8903 0
1 -6.55213 3.01004 0
1 199.789 44.6638 0
1 -15.0368 7.09029 0
1 168.059 107.765 0
1 237.884 125.594 0
1 161.945 39.1469 0
1 -16.6625 105.41 0
1 147.522 112.722 0
1 66.4565 111.087 0
1 10.3413 125.002 0
1 240.65 107.693 0
1 213.802 -0.512566 0
1 96.3233 -3.55638 0
1 65.5448 118.979 0
1 50.3405 99.4913 0
1 127.971 99.6068 0
1 100.64 33.6822 0
1 180.248 96.5126 0
1 105.948 83.8656 0
1 -16.158 0.455298 0
1 107.289 50.6619 0
1 111.364 39.593 0
1 78.8146 89.9826 0
1 207.686 113.669 0
1 208.764 31.0435 0
1 174.42 117.434 0
1 216.788 123.366 0
1 180.859 -4.83842 0
1 74.5648 13.5705 0
1 132.203 93.5262 0
1 97.7393 112.221 0
1 237.27 -13.5954 0
1 208.537 23.9644 0
1 160.394 30.7399 0
1 110.186 96.77 0
1 -3.76834 15.5193 0
1 -9.41429 117.324 0
1 98.2131 33.4088 0
1 -10.92 95.3272 0
1 27.1036 -12.044 0
1 35.273 114.729 0
1 185.555 124.299 0
1 128.573 126.55 0
1 103.613 105.892 0
1 100.824 97.6885 0
1 -21.8736 138.678 0
1 8.10086 107.362 0
1 240.521 -14.2442 0
1 212.671 88.3045 0
1 213.432 125.51 0
1 230.453 92.0937 0
1 6.03215 33.0725 0
1 102.72 118.137 0
1 54.8264 12.92 0
1 12.9571 132.297 0
1 51.379 96.548 0
1 79.7511 17.9283 0
1 -26.2627 60.302 0
1 67.9908 29.5314 0
1 190.027 89.2359 0
1 -0.934648 89.6935 0
1 33.8165 97.1291 0
1 -10.0779 133.294 0
1 49.1438 87.1863 0
1 162.321 104.638 0
1 111.499 87.7034 0
1 185.924 61.8168 0
1 193.762 136.66 0
1 96.9068 99.0963 0
1 192.319 59.0628 0
1 200.847 131.472 0
1 166.495 116.144 0
1 163.633 16.6412 0
1 -6.71098 39.5024 0
1 130.855 29.8279 0
1 116.168 112.875 0
1 -26.3298 109.347 0
1 153.186 93.53 0
1 14.7764 53.8154 0
1 118.776 135.988 0
1 150.826 3.38854 0
1 238.122 108.152 0
1 227.783 26.9737 0
1 50.1119 105.994 0
1 39.5296 105.298 0
1 221.774 132.598 0
1 104.602 80.0586 0
1 218.832 127.212 0
1 -22.3283 103.474 0
1 164.549 118.115 0
1 93.2048 119.21 0
1 175.479 39.7295 0
1 201.166 108.054 0
1 70.7483 15.3543 0
1 154.845 90.3611 0
1 80.4661 108.458 0
1 58.8315 104.064 0
1 84.1008 129.569 0
1 166.468 74.5956 0
1 117.855 109.909 0
1 66.9682 27.0368 0
1 122.008 43.3866 0
1 194.426 101.789 0
1 116.279 30.2155 0
1 159.306 54.8144 0
1 49.0093 48.0128 0
1 83.2962 6.9907 0
1 200.091 102.497 0
1 17.3261 81.0514 0
1 154.231 52.5467 0
1 164.383 123.375 0
1 206.856 43.2219 0
1 173.759 129.958 0
1 196.212 108.812 0
1 150.208 6.99694 0
1 163.128 65.9548 0
1 105.566 112.399 0
1 133.537 103.718 0
1 228.674 135.229 0
1 203.125 85.2872 0
1 83.7215 32.1233 0
1 147.725 44.2715 0
1 207.361 -7.17269 0
1 5.38853 99.171 0
1 27.6263 92.4456 0
1 -26.0455 127.268 0
1 205.389 123.257 0
1 -15.1161 24.004 0
1 50.6168 93.0655 0
1 55.754 98.2592 0
1 149.753 43.6809 0
1 22.4556 97.0793 0
1 29.1798 -8.16304 0
1 236.634 119.503 0
1 -12.6718 45.9065 0
1 156.749 42.088 0
1 232.431 64.743 0
1 -22.6612 82.9923 0
1 133.203 82.0859 0
1 212.98 -2.83579 0
1 106.017 114.98 0
1 230.026 38.6366 0
1 -5.8535 126.571 0
1 -1.6569 117.07 0
1 218.56 4.20052 0
1 109.726 52.0297 0
1 142.448 126.517 0
1 148.066 108.662 0
1 83.4368 112.936 0
1 92.9738 34.5434 0
1 200.459 38.3264 0
1 102.635 -10.1247 0
1 116.77 11.5755 0
1 136.387 58.4562 0
1 213.585 48.3153 0
1 155.143 35.0095 0
1 70.8954 54.8214 0
1 158.939 115.078 0
1 36.9456 128.352 0
1 19.2703 79.7585 0
1 153.281 101.641 0
1 216.656 64.9816 0
1 205.763 127.703 0
1 186.019 119.091 0
1 184.67 137.377 0
1 211.7 91.8955 0
1 14.7026 129.143 0
1 27.7073 76.5135 0
1 220.117 79.7686 0
1 35.6065 80.6235 0
1 62.0753 41.7295 0
1 104.102 116.213 0
1 23.9461 -15.1195 0
1 94.4948 -1.67482 0
1 137.981 33.495 0
1 76.8317 100.832 0
1 156.136 129.751 0
1 231.709 99.0867 0
1 -23.5698 75.8857 0
1 85.5472 133.999 0
1 119.032 69.9113 0
1 144.934 -3.46096 0
1 114.187 91.8799 0
1 183.184 111.134 0
1 145.929 64.7982 0
1 90.5487 -5.71676 0
1 219.054 -9.7598 0
1 135.798 83.4253 0
1 203.032 63.4881 0
1 93.1289 132.675 0
1 234.657 3.1433 0
1 216.01 90.2459 0
1 -6.83622 25.4353 0
1 99.6821 73.5075 0
1 81.6399 33.4434 0
1 220.997 104.461 0
1 116.278 124.162 0
1 173.05 114.633 0
1 -13.3203 123.222 0
1 149.288 63.8848 0
1 141.181 0.514463 0
1 98.2702 120.41 0
1 192.099 -10.0863 0
1 228.934 12.6469 0
1 50.3558 85.2838 0
1 -17.8837 21.3798 0
1 184.724 53.1886 0
1 -5.00362 115.3 0
1 173.361 38.5945 0
1 231.578 82.4498 0
1 96.365 38.8967 0
1 85.9472 136.928 0
1 -24.8105 28.4221 0
1 135.446 97.4771 0
1 2.19733 2.19781 0
1 78.8482 101.786 0
1 -17.681 95.089 0
1 -16.6204 103.319 0
1 158.504 109.062 0
1 79.9471 129.157 0
1 209.111 81.1529 0