6400
Atoms. Timestep: 0
1 5.34 4.62458 0
1 10.68 4.62458 0
1 16.02 4.62458 0
1 21.36 4.62458 0
1 26.7 4.62458 0
1 32.04 4.62458 0
1 37.38 4.62458 0
1 42.72 4.62458 0
1 48.06 4.62458 0
1 53.4 4.62458 0
1 58.74 4.62458 0
1 64.08 4.62458 0
1 69.42 4.62458 0
1 74.76 4.62458 0
1 80.1 4.62458 0
1 85.44 4.62458 0
1 90.78 4.62458 0
1 96.12 4.62458 0
1 101.46 4.62458 0
1 106.8 4.62458 0
1 112.14 4.62458 0
1 117.48 4.62458 0
1 122.82 4.62458 0
1 128.16 4.62458 0
1 133.5 4.62458 0
1 138.84 4.62458 0
1 144.18 4.62458 0
1 149.52 4.62458 0
1 154.86 4.62458 0
1 160.2 4.62458 0
1 165.54 4.62458 0
1 170.88 4.62458 0
1 176.22 4.62458 0
1 181.56 4.62458 0
1 186.9 4.62458 0
1 192.24 4.62458 0
1 197.58 4.62458 0
1 202.92 4.62458 0
1 208.26 4.62458 0
1 0 4.62458 0
1 5.34 7.70763 0
1 10.68 7.70763 0
1 16.02 7.70763 0
1 21.36 7.70763 0
1 26.7 7.70763 0
1 32.04 7.70763 0
1 37.38 7.70763 0
1 42.72 7.70763 0
1 48.06 7.70763 0
1 53.4 7.70763 0
1 58.74 7.70763 0
1 64.08 7.70763 0
1 69.42 7.70763 0
1 74.76 7.70763 0
1 80.1 7.70763 0
1 85.44 7.70763 0
1 90.78 7.70763 0
1 96.12 7.70763 0
1 101.46 7.70763 0
1 106.8 7.70763 0
1 112.14 7.70763 0
1 117.48 7.70763 0
1 122.82 7.70763 0
1 128.16 7.70763 0
1 133.5 7.70763 0
1 138.84 7.70763 0
1 144.18 7.70763 0
1 149.52 7.70763 0
1 154.86 7.70763 0
1 160.2 7.70763 0
1 165.54 7.70763 0
1 170.88 7.70763 0
1 176.22 7.70763 0
1 181.56 7.70763 0
1 186.9 7.70763 0
1 192.24 7.70763 0
1 197.58 7.70763 0
1 202.92 7.70763 0
1 208.26 7.70763 0
1 0 7.70763 0
1 5.34 10.7907 0
1 10.68 10.7907 0
1 16.02 10.7907 0
1 21.36 10.7907 0
1 26.7 10.7907 0
1 32.04 10.7907 0
1 37.38 10.7907 0
1 42.72 10.7907 0
1 48.06 10.7907 0
1 53.4 10.7907 0
1 58.74 10.7907 0
1 64.08 10.7907 0
1 69.42 10.7907 0
1 74.76 10.7907 0
1 80.1 10.7907 0
1 85.44 10.7907 0
1 90.78 10.7907 0
1 96.12 10.7907 0
1 101.46 10.7907 0
1 106.8 10.7907 0
1 112.14 10.7907 0
1 117.48 10.7907 0
1 122.82 10.7907 0
1 128.16 10.7907 0
1 133.5 10.7907 0
1 138.84 10.7907 0
1 144.18 10.7907 0
1 149.52 10.7907 0
1 154.86 10.7907 0
1 160.2 10.7907 0
1 165.54 10.7907 0
1 170.88 10.7907 0
1 176.22 10.7907 0
1 181.56 10.7907 0
1 186.9 10.7907 0
1 192.24 10.7907 0
1 197.58 10.7907 0
1 202.92 10.7907 0
1 208.26 10.7907 0
1 0 10.7907 0
1 5.34 13.8737 0
1 10.68 13.8737 0
1 16.02 13.8737 0
1 21.36 13.8737 0
1 26.7 13.8737 0
1 32.04 13.8737 0
1 37.38 13.8737 0
1 42.72 13.8737 0
1 48.06 13.8737 0
1 53.4 13.8737 0
1 58.74 13.8737 0
1 64.08 13.8737 0
1 69.42 13.8737 0
1 74.76 13.8737 0
1 80.1 13.8737 0
1 85.44 13.8737 0
1 90.78 13.8737 0
1 96.12 13.8737 0
1 101.46 13.8737 0
1 106.8 13.8737 0
1 112.14 13.8737 0
1 117.48 13.8737 0
1 122.82 13.8737 0
1 128.16 13.8737 0
1 133.5 13.8737 0
1 138.84 13.8737 0
1 144.18 13.8737 0
1 149.52 13.8737 0
1 154.86 13.8737 0
1 160.2 13.8737 0
1 165.54 13.8737 0
1 170.88 13.8737 0
1 176.22 13.8737 0
1 181.56 13.8737 0
1 186.9 13.8737 0
1 192.24 13.8737 0
1 197.58 13.8737 0
1 202.92 13.8737 0
1 208.26 13.8737 0
1 0 13.8737 0
1 5.34 16.9568 0
1 10.68 16.9568 0
1 16.02 16.9568 0
1 21.36 16.9568 0
1 26.7 16.9568 0
1 32.04 16.9568 0
1 37.38 16.9568 0
1 42.72 16.9568 0
1 48.06 16.9568 0
1 53.4 16.9568 0
1 58.74 16.9568 0
1 64.08 16.9568 0
1 69.42 16.9568 0
1 74.76 16.9568 0
1 80.1 16.9568 0
1 85.44 16.9568 0
1 90.78 16.9568 0
1 96.12 16.9568 0
1 101.46 16.9568 0
1 106.8 16.9568 0
1 112.14 16.9568 0
1 117.48 16.9568 0
1 122.82 16.9568 0
1 128.16 16.9568 0
1 133.5 16.9568 0
1 138.84 16.9568 0
1 144.18 16.9568 0
1 149.52 16.9568 0
1 154.86 16.9568 0
1 160.2 16.9568 0
1 165.54 16.9568 0
1 170.88 16.9568 0
1 176.22 16.9568 0
1 181.56 16.9568 0
1 186.9 16.9568 0
1 192.24 16.9568 0
1 197.58 16.9568 0
1 202.92 16.9568 0
1 208.26 16.9568 0
1 0 16.9568 0
1 5.34 20.0398 0
1 10.68 20.0398 0
1 16.02 20.0398 0
1 21.36 20.0398 0
1 26.7 20.0398 0
1 32.04 20.0398 0
1 37.38 20.0398 0
1 42.72 20.0398 0
1 48.06 20.0398 0
1 53.4 20.0398 0
1 58.74 20.0398 0
1 64.08 20.0398 0
1 69.42 20.0398 0
1 74.76 20.0398 0
1 80.1 20.0398 0
1 85.44 20.0398 0
1 90.78 20.0398 0
1 96.12 20.0398 0
1 101.46 20.0398 0
1 106.8 20.0398 0
1 112.14 20.0398 0
1 117.48 20.0398 0
1 122.82 20.0398 0
1 128.16 20.0398 0
1 133.5 20.0398 0
1 138.84 20.0398 0
1 144.18 20.0398 0
1 149.52 20.0398 0
1 154.86 20.0398 0
1 160.2 20.0398 0
1 165.54 20.0398 0
1 170.88 20.0398 0
1 176.22 20.0398 0
1 181.56 20.0398 0
1 186.9 20.0398 0
1 192.24 20.0398 0
1 197.58 20.0398 0
1 202.92 20.0398 0
1 208.26 20.0398 0
1 0 20.0398 0
1 5.34 23.1229 0
1 10.68 23.1229 0
1 16.02 23.1229 0
1 21.36 23.1229 0
1 26.7 23.1229 0
1 32.04 23.1229 0
1 37.38 23.1229 0
1 42.72 23.1229 0
1 48.06 23.1229 0
1 53.4 23.1229 0
1 58.74 23.1229 0
1 64.08 23.1229 0
1 69.42 23.1229 0
1 74.76 23.1229 0
1 80.1 23.1229 0
1 85.44 23.1229 0
1 90.78 23.1229 0
1 96.12 23.1229 0
1 101.46 23.1229 0
1 106.8 23.1229 0
1 112.14 23.1229 0
1 117.48 23.1229 0
1 122.82 23.1229 0
1 128.16 23.1229 0
1 133.5 23.1229 0
1 138.84 23.1229 0
1 144.18 23.1229 0
1 149.52 23.1229 0
1 154.86 23.1229 0
1 160.2 23.1229 0
1 165.54 23.1229 0
1 170.88 23.1229 0
1 176.22 23.1229 0
1 181.56 23.1229 0
1 186.9 23.1229 0
1 192.24 23.1229 0
1 197.58 23.1229 0
1 202.92 23.1229 0
1 208.26 23.1229 0
1 0 23.1229 0
1 5.34 26.2059 0
1 10.68 26.2059 0
1 16.02 26.2059 0
1 21.36 26.2059 0
1 26.7 26.2059 0
1 32.04 26.2059 0
1 37.38 26.2059 0
1 42.72 26.2059 0
1 48.06 26.2059 0
1 53.4 26.2059 0
1 58.74 26.2059 0
1 64.08 26.2059 0
1 69.42 26.2059 0
1 74.76 26.2059 0
1 80.1 26.2059 0
1 85.44 26.2059 0
1 90.78 26.2059 0
1 96.12 26.2059 0
1 101.46 26.2059 0
1 106.8 26.2059 0
1 112.14 26.2059 0
1 117.48 26.2059 0
1 122.82 26.2059 0
1 128.16 26.2059 0
1 133.5 26.2059 0
1 138.84 26.2059 0
1 144.18 26.2059 0
1 149.52 26.2059 0
1 154.86 26.2059 0
1 160.2 26.2059 0
1 165.54 26.2059 0
1 170.88 26.2059 0
1 176.22 26.2059 0
1 181.56 26.2059 0
1 186.9 26.2059 0
1 192.24 26.2059 0
1 197.58 26.2059 0
1 202.92 26.2059 0
1 208.26 26.2059 0
1 0 26.2059 0
1 5.34 29.289 0
1 10.68 29.289 0
1 16.02 29.289 0
1 21.36 29.289 0
1 26.7 29.289 0
1 32.04 29.289 0
1 37.38 29.289 0
1 42.72 29.289 0
1 48.06 29.289 0
1 53.4 29.289 0
1 58.74 29.289 0
1 64.08 29.289 0
1 69.42 29.289 0
1 74.76 29.289 0
1 80.1 29.289 0
1 85.44 29.289 0
1 90.78 29.289 0
1 96.12 29.289 0
1 101.46 29.289 0
1 106.8 29.289 0
1 112.14 29.289 0
1 117.48 29.289 0
1 122.82 29.289 0
1 128.16 29.289 0
1 133.5 29.289 0
1 138.84 29.289 0
1 144.18 29.289 0
1 149.52 29.289 0
1 154.86 29.289 0
1 160.2 29.289 0
1 165.54 29.289 0
1 170.88 29.289 0
1 176.22 29.289 0
1 181.56 29.289 0
1 186.9 29.289 0
1 192.24 29.289 0
1 197.58 29.289 0
1 202.92 29.289 0
1 208.26 29.289 0
1 0 29.289 0
1 5.34 32.372 0
1 10.68 32.372 0
1 16.02 32.372 0
1 21.36 32.372 0
1 26.7 32.372 0
1 32.04 32.372 0
1 37.38 32.372 0
1 42.72 32.372 0
1 48.06 32.372 0
1 53.4 32.372 0
1 58.74 32.372 0
1 64.08 32.372 0
1 69.42 32.372 0
1 74.76 32.372 0
1 80.1 32.372 0
1 85.44 32.372 0
1 90.78 32.372 0
1 96.12 32.372 0
1 101.46 32.372 0
1 106.8 32.372 0
1 112.14 32.372 0
1 117.48 32.372 0
1 122.82 32.372 0
1 128.16 32.372 0
1 133.5 32.372 0
1 138.84 32.372 0
1 144.18 32.372 0
1 149.52 32.372 0
1 154.86 32.372 0
1 160.2 32.372 0
1 165.54 32.372 0
1 170.88 32.372 0
1 176.22 32.372 0
1 181.56 32.372 0
1 186.9 32.372 0
1 192.24 32.372 0
1 197.58 32.372 0
1 202.92 32.372 0
1 208.26 32.372 0
1 0 32.372 0
1 5.34 35.4551 0
1 10.68 35.4551 0
1 16.02 35.4551 0
1 21.36 35.4551 0
1 26.7 35.4551 0
1 32.04 35.4551 0
1 37.38 35.4551 0
1 42.72 35.4551 0
1 48.06 35.4551 0
1 53.4 35.4551 0
1 58.74 35.4551 0
1 64.08 35.4551 0
1 69.42 35.4551 0
1 74.76 35.4551 0
1 80.1 35.4551 0
1 85.44 35.4551 0
1 90.78 35.4551 0
1 96.12 35.4551 0
1 101.46 35.4551 0
1 106.8 35.4551 0
1 112.14 35.4551 0
1 117.48 35.4551 0
1 122.82 35.4551 0
1 128.16 35.4551 0
1 133.5 35.4551 0
1 138.84 35.4551 0
1 144.18 35.4551 0
1 149.52 35.4551 0
1 154.86 35.4551 0
1 160.2 35.4551 0
1 165.54 35.4551 0
1 170.88 35.4551 0
1 176.22 35.4551 0
1 181.56 35.4551 0
1 186.9 35.4551 0
1 192.24 35.4551 0
1 197.58 35.4551 0
1 202.92 35.4551 0
1 208.26 35.4551 0
1 0 35.4551 0
1 5.34 38.5381 0
1 10.68 38.5381 0
1 16.02 38.5381 0
1 21.36 38.5381 0
1 26.7 38.5381 0
1 32.04 38.5381 0
1 37.38 38.5381 0
1 42.72 38.5381 0
1 48.06 38.5381 0
1 53.4 38.5381 0
1 58.74 38.5381 0
1 64.08 38.5381 0
1 69.42 38.5381 0
1 74.76 38.5381 0
1 80.1 38.5381 0
1 85.44 38.5381 0
1 90.78 38.5381 0
1 96.12 38.5381 0
1 101.46 38.5381 0
1 106.8 38.5381 0
1 112.14 38.5381 0
1 117.48 38.5381 0
1 122.82 38.5381 0
1 128.16 38.5381 0
1 133.5 38.5381 0
1 138.84 38.5381 0
1 144.18 38.5381 0
1 149.52 38.5381 0
1 154.86 38.5381 0
1 160.2 38.5381 0
1 165.54 38.5381 0
1 170.88 38.5381 0
1 176.22 38.5381 0
1 181.56 38.5381 0
1 186.9 38.5381 0
1 192.24 38.5381 0
1 197.58 38.5381 0
1 202.92 38.5381 0
1 208.26 38.5381 0
1 0 38.5381 0
1 5.34 41.6212 0
1 10.68 41.6212 0
1 16.02 41.6212 0
1 21.36 41.6212 0
1 26.7 41.6212 0
1 32.04 41.6212 0
1 37.38 41.6212 0
1 42.72 41.6212 0
1 48.06 41.6212 0
1 53.4 41.6212 0
1 58.74 41.6212 0
1 64.08 41.6212 0
1 69.42 41.6212 0
1 74.76 41.6212 0
1 80.1 41.6212 0
1 85.44 41.6212 0
1 90.78 41.6212 0
1 96.12 41.6212 0
1 101.46 41.6212 0
1 106.8 41.6212 0
1 112.14 41.6212 0
1 117.48 41.6212 0
1 122.82 41.6212 0
1 128.16 41.6212 0
1 133.5 41.6212 0
1 138.84 41.6212 0
1 144.18 41.6212 0
1 149.52 41.6212 0
1 154.86 41.6212 0
1 160.2 41.6212 0
1 165.54 41.6212 0
1 170.88 41.6212 0
1 176.22 41.6212 0
1 181.56 41.6212 0
1 186.9 41.6212 0
1 192.24 41.6212 0
1 197.58 41.6212 0
1 202.92 41.6212 0
1 208.26 41.6212 0
1 0 41.6212 0
1 5.34 44.7042 0
1 10.68 44.7042 0
1 16.02 44.7042 0
1 21.36 44.7042 0
1 26.7 44.7042 0
1 32.04 44.7042 0
1 37.38 44.7042 0
1 42.72 44.7042 0
1 48.06 44.7042 0
1 53.4 44.7042 0
1 58.74 44.7042 0
1 64.08 44.7042 0
1 69.42 44.7042 0
1 74.76 44.7042 0
1 80.1 44.7042 0
1 85.44 44.7042 0
1 90.78 44.7042 0
1 96.12 44.7042 0
1 101.46 44.7042 0
1 106.8 44.7042 0
1 112.14 44.7042 0
1 117.48 44.7042 0
1 122.82 44.7042 0
1 128.16 44.7042 0
1 133.5 44.7042 0
1 138.84 44.7042 0
1 144.18 44.7042 0
1 149.52 44.7042 0
1 154.86 44.7042 0
1 160.2 44.7042 0
1 165.54 44.7042 0
1 170.88 44.7042 0
1 176.22 44.7042 0
1 181.56 44.7042 0
1 186.9 44.7042 0
1 192.24 44.7042 0
1 197.58 44.7042 0
1 202.92 44.7042 0
1 208.26 44.7042 0
1 0 44.7042 0
1 5.34 47.7873 0
1 10.68 47.7873 0
1 16.02 47.7873 0
1 21.36 47.7873 0
1 26.7 47.7873 0
1 32.04 47.7873 0
1 37.38 47.7873 0
1 42.72 47.7873 0
1 48.06 47.7873 0
1 53.4 47.7873 0
1 58.74 47.7873 0
1 64.08 47.7873 0
1 69.42 47.7873 0
1 74.76 47.7873 0
1 80.1 47.7873 0
1 85.44 47.7873 0
1 90.78 47.7873 0
1 96.12 47.7873 0
1 101.46 47.7873 0
1 106.8 47.7873 0
1 112.14 47.7873 0
1 117.48 47.7873 0
1 122.82 47.7873 0
1 128.16 47.7873 0
1 133.5 47.7873 0
1 138.84 47.7873 0
1 144.18 47.7873 0
1 149.52 47.7873 0
1 154.86 47.7873 0
1 160.2 47.7873 0
1 165.54 47.7873 0
1 170.88 47.7873 0
1 176.22 47.7873 0
1 181.56 47.7873 0
1 186.9 47.7873 0
1 192.24 47.7873 0
1 197.58 47.7873 0
1 202.92 47.7873 0
1 208.26 47.7873 0
1 0 47.7873 0
1 5.34 50.8703 0
1 10.68 50.8703 0
1 16.02 50.8703 0
1 21.36 50.8703 0
1 26.7 50.8703 0
1 32.04 50.8703 0
1 37.38 50.8703 0
1 42.72 50.8703 0
1 48.06 50.8703 0
1 53.4 50.8703 0
1 58.74 50.8703 0
1 64.08 50.8703 0
1 69.42 50.8703 0
1 74.76 50.8703 0
1 80.1 50.8703 0
1 85.44 50.8703 0
1 90.78 50.8703 0
1 96.12 50.8703 0
1 101.46 50.8703 0
1 106.8 50.8703 0
1 112.14 50.8703 0
1 117.48 50.8703 0
1 122.82 50.8703 0
1 128.16 50.8703 0
1 133.5 50.8703 0
1 138.84 50.8703 0
1 144.18 50.8703 0
1 149.52 50.8703 0
1 154.86 50.8703 0
1 160.2 50.8703 0
1 165.54 50.8703 0
1 170.88 50.8703 0
1 176.22 50.8703 0
1 181.56 50.8703 0
1 186.9 50.8703 0
1 192.24 50.8703 0
1 197.58 50.8703 0
1 202.92 50.8703 0
1 208.26 50.8703 0
1 0 50.8703 0
1 5.34 53.9534 0
1 10.68 53.9534 0
1 16.02 53.9534 0
1 21.36 53.9534 0
1 26.7 53.9534 0
1 32.04 53.9534 0
1 37.38 53.9534 0
1 42.72 53.9534 0
1 48.06 53.9534 0
1 53.4 53.9534 0
1 58.74 53.9534 0
1 64.08 53.9534 0
1 69.42 53.9534 0
1 74.76 53.9534 0
1 80.1 53.9534 0
1 85.44 53.9534 0
1 90.78 53.9534 0
1 96.12 53.9534 0
1 101.46 53.9534 0
1 106.8 53.9534 0
1 112.14 53.9534 0
1 117.48 53.9534 0
1 122.82 53.9534 0
1 128.16 53.9534 0
1 133.5 53.9534 0
1 138.84 53.9534 0
1 144.18 53.9534 0
1 149.52 53.9534 0
1 154.86 53.9534 0
1 160.2 53.9534 0
1 165.54 53.9534 0
1 170.88 53.9534 0
1 176.22 53.9534 0
1 181.56 53.9534 0
1 186.9 53.9534 0
1 192.24 53.9534 0
1 197.58 53.9534 0
1 202.92 53.9534 0
1 208.26 53.9534 0
1 0 53.9534 0
1 5.34 57.0364 0
1 10.68 57.0364 0
1 16.02 57.0364 0
1 21.36 57.0364 0
1 26.7 57.0364 0
1 32.04 57.0364 0
1 37.38 57.0364 0
1 42.72 57.0364 0
1 48.06 57.0364 0
1 53.4 57.0364 0
1 58.74 57.0364 0
1 64.08 57.0364 0
1 69.42 57.0364 0
1 74.76 57.0364 0
1 80.1 57.0364 0
1 85.44 57.0364 0
1 90.78 57.0364 0
1 96.12 57.0364 0
1 101.46 57.0364 0
1 106.8 57.0364 0
1 112.14 57.0364 0
1 117.48 57.0364 0
1 122.82 57.0364 0
1 128.16 57.0364 0
1 133.5 57.0364 0
1 138.84 57.0364 0
1 144.18 57.0364 0
1 149.52 57.0364 0
1 154.86 57.0364 0
1 160.2 57.0364 0
1 165.54 57.0364 0
1 170.88 57.0364 0
1 176.22 57.0364 0
1 181.56 57.0364 0
1 186.9 57.0364 0
1 192.24 57.0364 0
1 197.58 57.0364 0
1 202.92 57.0364 0
1 208.26 57.0364 0
1 0 57.0364 0
1 5.34 60.1195 0
1 10.68 60.1195 0
1 16.02 60.1195 0
1 21.36 60.1195 0
1 26.7 60.1195 0
1 32.04 60.1195 0
1 37.38 60.1195 0
1 42.72 60.1195 0
1 48.06 60.1195 0
1 53.4 60.1195 0
1 58.74 60.1195 0
1 64.08 60.1195 0
1 69.42 60.1195 0
1 74.76 60.1195 0
1 80.1 60.1195 0
1 85.44 60.1195 0
1 90.78 60.1195 0
1 96.12 60.1195 0
1 101.46 60.1195 0
1 106.8 60.1195 0
1 112.14 60.1195 0
1 117.48 60.1195 0
1 122.82 60.1195 0
1 128.16 60.1195 0
1 133.5 60.1195 0
1 138.84 60.1195 0
1 144.18 60.1195 0
1 149.52 60.1195 0
1 154.86 60.1195 0
1 160.2 60.1195 0
1 165.54 60.1195 0
1 170.88 60.1195 0
1 176.22 60.1195 0
1 181.56 60.1195 0
1 186.9 60.1195 0
1 192.24 60.1195 0
1 197.58 60.1195 0
1 202.92 60.1195 0
1 208.26 60.1195 0
1 0 60.1195 0
1 5.34 63.2025 0
1 10.68 63.2025 0
1 16.02 63.2025 0
1 21.36 63.2025 0
1 26.7 63.2025 0
1 32.04 63.2025 0
1 37.38 63.2025 0
1 42.72 63.2025 0
1 48.06 63.2025 0
1 53.4 63.2025 0
1 58.74 63.2025 0
1 64.08 63.2025 0
1 69.42 63.2025 0
1 74.76 63.2025 0
1 80.1 63.2025 0
1 85.44 63.2025 0
1 90.78 63.2025 0
1 96.12 63.2025 0
1 101.46 63.2025 0
1 106.8 63.2025 0
1 112.14 63.2025 0
1 117.48 63.2025 0
1 122.82 63.2025 0
1 128.16 63.2025 0
1 133.5 63.2025 0
1 138.84 63.2025 0
1 144.18 63.2025 0
1 149.52 63.2025 0
1 154.86 63.2025 0
1 160.2 63.2025 0
1 165.54 63.2025 0
1 170.88 63.2025 0
1 176.22 63.2025 0
1 181.56 63.2025 0
1 186.9 63.2025 0
1 192.24 63.2025 0
1 197.58 63.2025 0
1 202.92 63.2025 0
1 208.26 63.2025 0
1 0 63.2025 0
1 5.34 66.2856 0
1 10.68 66.2856 0
1 16.02 66.2856 0
1 21.36 66.2856 0
1 26.7 66.2856 0
1 32.04 66.2856 0
1 37.38 66.2856 0
1 42.72 66.2856 0
1 48.06 66.2856 0
1 53.4 66.2856 0
1 58.74 66.2856 0
1 64.08 66.2856 0
1 69.42 66.2856 0
1 74.76 66.2856 0
1 80.1 66.2856 0
1 85.44 66.2856 0
1 90.78 66.2856 0
1 96.12 66.2856 0
1 101.46 66.2856 0
1 106.8 66.2856 0
1 112.14 66.2856 0
1 117.48 66.2856 0
1 122.82 66.2856 0
1 128.16 66.2856 0
1 133.5 66.2856 0
1 138.84 66.2856 0
1 144.18 66.2856 0
1 149.52 66.2856 0
1 154.86 66.2856 0
1 160.2 66.2856 0
1 165.54 66.2856 0
1 170.88 66.2856 0
1 176.22 66.2856 0
1 181.56 66.2856 0
1 186.9 66.2856 0
1 192.24 66.2856 0
1 197.58 66.2856 0
1 202.92 66.2856 0
1 208.26 66.2856 0
1 0 66.2856 0
1 5.34 69.3686 0
1 10.68 69.3686 0
1 16.02 69.3686 0
1 21.36 69.3686 0
1 26.7 69.3686 0
1 32.04 69.3686 0
1 37.38 69.3686 0
1 42.72 69.3686 0
1 48.06 69.3686 0
1 53.4 69.3686 0
1 58.74 69.3686 0
1 64.08 69.3686 0
1 69.42 69.3686 0
1 74.76 69.3686 0
1 80.1 69.3686 0
1 85.44 69.3686 0
1 90.78 69.3686 0
1 96.12 69.3686 0
1 101.46 69.3686 0
1 106.8 69.3686 0
1 112.14 69.3686 0
1 117.48 69.3686 0
1 122.82 69.3686 0
1 128.16 69.3686 0
1 133.5 69.3686 0
1 138.84 69.3686 0
1 144.18 69.3686 0
1 149.52 69.3686 0
1 154.86 69.3686 0
1 160.2 69.3686 0
1 165.54 69.3686 0
1 170.88 69.3686 0
1 176.22 69.3686 0
1 181.56 69.3686 0
1 186.9 69.3686 0
1 192.24 69.3686 0
1 197.58 69.3686 0
1 202.92 69.3686 0
1 208.26 69.3686 0
1 0 69.3686 0
1 5.34 72.4517 0
1 10.68 72.4517 0
1 16.02 72.4517 0
1 21.36 72.4517 0
1 26.7 72.4517 0
1 32.04 72.4517 0
1 37.38 72.4517 0
1 42.72 72.4517 0
1 48.06 72.4517 0
1 53.4 72.4517 0
1 58.74 72.4517 0
1 64.08 72.4517 0
1 69.42 72.4517 0
1 74.76 72.4517 0
1 80.1 72.4517 0
1 85.44 72.4517 0
1 90.78 72.4517 0
1 96.12 72.4517 0
1 101.46 72.4517 0
1 106.8 72.4517 0
1 112.14 72.4517 0
1 117.48 72.4517 0
1 122.82 72.4517 0
1 128.16 72.4517 0
1 133.5 72.4517 0
1 138.84 72.4517 0
1 144.18 72.4517 0
1 149.52 72.4517 0
1 154.86 72.4517 0
1 160.2 72.4517 0
1 165.54 72.4517 0
1 170.88 72.4517 0
1 176.22 72.4517 0
1 181.56 72.4517 0
1 186.9 72.4517 0
1 192.24 72.4517 0
1 197.58 72.4517 0
1 202.92 72.4517 0
1 208.26 72.4517 0
1 0 72.4517 0
1 5.34 75.5347 0
1 10.68 75.5347 0
1 16.02 75.5347 0
1 21.36 75.5347 0
1 26.7 75.5347 0
1 32.04 75.5347 0
1 37.38 75.5347 0
1 42.72 75.5347 0
1 48.06 75.5347 0
1 53.4 75.5347 0
1 58.74 75.5347 0
1 64.08 75.5347 0
1 69.42 75.5347 0
1 74.76 75.5347 0
1 80.1 75.5347 0
1 85.44 75.5347 0
1 90.78 75.5347 0
1 96.12 75.5347 0
1 101.46 75.5347 0
1 106.8 75.5347 0
1 112.14 75.5347 0
1 117.48 75.5347 0
1 122.82 75.5347 0
1 128.16 75.5347 0
1 133.5 75.5347 0
1 138.84 75.5347 0
1 144.18 75.5347 0
1 149.52 75.5347 0
1 154.86 75.5347 0
1 160.2 75.5347 0
1 165.54 75.5347 0
1 170.88 75.5347 0
1 176.22 75.5347 0
1 181.56 75.5347 0
1 186.9 75.5347 0
1 192.24 75.5347 0
1 197.58 75.5347 0
1 202.92 75.5347 0
1 208.26 75.5347 0
1 0 75.5347 0
1 5.34 78.6178 0
1 10.68 78.6178 0
1 16.02 78.6178 0
1 21.36 78.6178 0
1 26.7 78.6178 0
1 32.04 78.6178 0
1 37.38 78.6178 0
1 42.72 78.6178 0
1 48.06 78.6178 0
1 53.4 78.6178 0
1 58.74 78.6178 0
1 64.08 78.6178 0
1 69.42 78.6178 0
1 74.76 78.6178 0
1 80.1 78.6178 0
1 85.44 78.6178 0
1 90.78 78.6178 0
1 96.12 78.6178 0
1 101.46 78.6178 0
1 106.8 78.6178 0
1 112.14 78.6178 0
1 117.48 78.6178 0
1 122.82 78.6178 0
1 128.16 78.6178 0
1 133.5 78.6178 0
1 138.84 78.6178 0
1 144.18 78.6178 0
1 149.52 78.6178 0
1 154.86 78.6178 0
1 160.2 78.6178 0
1 165.54 78.6178 0
1 170.88 78.6178 0
1 176.22 78.6178 0
1 181.56 78.6178 0
1 186.9 78.6178 0
1 192.24 78.6178 0
1 197.58 78.6178 0
1 202.92 78.6178 0
1 208.26 78.6178 0
1 0 78.6178 0
1 5.34 81.7008 0
1 10.68 81.7008 0
1 16.02 81.7008 0
1 21.36 81.7008 0
1 26.7 81.7008 0
1 32.04 81.7008 0
1 37.38 81.7008 0
1 42.72 81.7008 0
1 48.06 81.7008 0
1 53.4 81.7008 0
1 58.74 81.7008 0
1 64.08 81.7008 0
1 69.42 81.7008 0
1 74.76 81.7008 0
1 80.1 81.7008 0
1 85.44 81.7008 0
1 90.78 81.7008 0
1 96.12 81.7008 0
1 101.46 81.7008 0
1 106.8 81.7008 0
1 112.14 81.7008 0
1 117.48 81.7008 0
1 122.82 81.7008 0
1 128.16 81.7008 0
1 133.5 81.7008 0
1 138.84 81.7008 0
1 144.18 81.7008 0
1 149.52 81.7008 0
1 154.86 81.7008 0
1 160.2 81.7008 0
1 165.54 81.7008 0
1 170.88 81.7008 0
1 176.22 81.7008 0
1 181.56 81.7008 0
1 186.9 81.7008 0
1 192.24 81.7008 0
1 197.58 81.7008 0
1 202.92 81.7008 0
1 208.26 81.7008 0
1 0 81.7008 0
1 5.34 84.7839 0
1 10.68 84.7839 0
1 16.02 84.7839 0
1 21.36 84.7839 0
1 26.7 84.7839 0
1 32.04 84.7839 0
1 37.38 84.7839 0
1 42.72 84.7839 0
1 48.06 84.7839 0
1 53.4 84.7839 0
1 58.74 84.7839 0
1 64.08 84.7839 0
1 69.42 84.7839 0
1 74.76 84.7839 0
1 80.1 84.7839 0
1 85.44 84.7839 0
1 90.78 84.7839 0
1 96.12 84.7839 0
1 101.46 84.7839 0
1 106.8 84.7839 0
1 112.14 84.7839 0
1 117.48 84.7839 0
1 122.82 84.7839 0
1 128.16 84.7839 0
1 133.5 84.7839 0
1 138.84 84.7839 0
1 144.18 84.7839 0
1 149.52 84.7839 0
1 154.86 84.7839 0
1 160.2 84.7839 0
1 165.54 84.7839 0
1 170.88 84.7839 0
1 176.22 84.7839 0
1 181.56 84.7839 0
1 186.9 84.7839 0
1 192.24 84.7839 0
1 197.58 84.7839 0
1 202.92 84.7839 0
1 208.26 84.7839 0
1 0 84.7839 0
1 5.34 87.8669 0
1 10.68 87.8669 0
1 16.02 87.8669 0
1 21.36 87.8669 0
1 26.7 87.8669 0
1 32.04 87.8669 0
1 37.38 87.8669 0
1 42.72 87.8669 0
1 48.06 87.8669 0
1 53.4 87.8669 0
1 58.74 87.8669 0
1 64.08 87.8669 0
1 69.42 87.8669 0
1 74.76 87.8669 0
1 80.1 87.8669 0
1 85.44 87.8669 0
1 90.78 87.8669 0
1 96.12 87.8669 0
1 101.46 87.8669 0
1 106.8 87.8669 0
1 112.14 87.8669 0
1 117.48 87.8669 0
1 122.82 87.8669 0
1 128.16 87.8669 0
1 133.5 87.8669 0
1 138.84 87.8669 0
1 144.18 87.8669 0
1 149.52 87.8669 0
1 154.86 87.8669 0
1 160.2 87.8669 0
1 165.54 87.8669 0
1 170.88 87.8669 0
1 176.22 87.8669 0
1 181.56 87.8669 0
1 186.9 87.8669 0
1 192.24 87.8669 0
1 197.58 87.8669 0
1 202.92 87.8669 0
1 208.26 87.8669 0
1 0 87.8669 0
1 5.34 90.95 0
1 10.68 90.95 0
1 16.02 90.95 0
1 21.36 90.95 0
1 26.7 90.95 0
1 32.04 90.95 0
1 37.38 90.95 0
1 42.72 90.95 0
1 48.06 90.95 0
1 53.4 90.95 0
1 58.74 90.95 0
1 64.08 90.95 0
1 69.42 90.95 0
1 74.76 90.95 0
1 80.1 90.95 0
1 85.44 90.95 0
1 90.78 90.95 0
1 96.12 90.95 0
1 101.46 90.95 0
1 106.8 90.95 0
1 112.14 90.95 0
1 117.48 90.95 0
1 122.82 90.95 0
1 128.16 90.95 0
1 133.5 90.95 0
1 138.84 90.95 0
1 144.18 90.95 0
1 149.52 90.95 0
1 154.86 90.95 0
1 160.2 90.95 0
1 165.54 90.95 0
1 170.88 90.95 0
1 176.22 90.95 0
1 181.56 90.95 0
1 186.9 90.95 0
1 192.24 90.95 0
1 197.58 90.95 0
1 202.92 90.95 0
1 208.26 90.95 0
1 0 90.95 0
1 5.34 94.033 0
1 10.68 94.033 0
1 16.02 94.033 0
1 21.36 94.033 0
1 26.7 94.033 0
1 32.04 94.033 0
1 37.38 94.033 0
1 42.72 94.033 0
1 48.06 94.033 0
1 53.4 94.033 0
1 58.74 94.033 0
1 64.08 94.033 0
1 69.42 94.033 0
1 74.76 94.033 0
1 80.1 94.033 0
1 85.44 94.033 0
1 90.78 94.033 0
1 96.12 94.033 0
1 101.46 94.033 0
1 106.8 94.033 0
1 112.14 94.033 0
1 117.48 94.033 0
1 122.82 94.033 0
1 128.16 94.033 0
1 133.5 94.033 0
1 138.84 94.033 0
1 144.18 94.033 0
1 149.52 94.033 0
1 154.86 94.033 0
1 160.2 94.033 0
1 165.54 94.033 0
1 170.88 94.033 0
1 176.22 94.033 0
1 181.56 94.033 0
1 186.9 94.033 0
1 192.24 94.033 0
1 197.58 94.033 0
1 202.92 94.033 0
1 208.26 94.033 0
1 0 94.033 0
1 5.34 97.1161 0
1 10.68 97.1161 0
1 16.02 97.1161 0
1 21.36 97.1161 0
1 26.7 97.1161 0
1 32.04 97.1161 0
1 37.38 97.1161 0
1 42.72 97.1161 0
1 48.06 97.1161 0
1 53.4 97.1161 0
1 58.74 97.1161 0
1 64.08 97.1161 0
1 69.42 97.1161 0
1 74.76 97.1161 0
1 80.1 97.1161 0
1 85.44 97.1161 0
1 90.78 97.1161 0
1 96.12 97.1161 0
1 101.46 97.1161 0
1 106.8 97.1161 0
1 112.14 97.1161 0
1 117.48 97.1161 0
1 122.82 97.1161 0
1 128.16 97.1161 0
1 133.5 97.1161 0
1 138.84 97.1161 0
1 144.18 97.1161 0
1 149.52 97.1161 0
1 154.86 97.1161 0
1 160.2 97.1161 0
1 165.54 97.1161 0
1 170.88 97.1161 0
1 176.22 97.1161 0
1 181.56 97.1161 0
1 186.9 97.1161 0
1 192.24 97.1161 0
1 197.58 97.1161 0
1 202.92 97.1161 0
1 208.26 97.1161 0
1 0 97.1161 0
1 5.34 100.199 0
1 10.68 100.199 0
1 16.02 100.199 0
1 21.36 100.199 0
1 26.7 100.199 0
1 32.04 100.199 0
1 37.38 100.199 0
1 42.72 100.199 0
1 48.06 100.199 0
1 53.4 100.199 0
1 58.74 100.199 0
1 64.08 100.199 0
1 69.42 100.199 0
1 74.76 100.199 0
1 80.1 100.199 0
1 85.44 100.199 0
1 90.78 100.199 0
1 96.12 100.199 0
1 101.46 100.199 0
1 106.8 100.199 0
1 112.14 100.199 0
1 117.48 100.199 0
1 122.82 100.199 0
1 128.16 100.199 0
1 133.5 100.199 0
1 138.84 100.199 0
1 144.18 100.199 0
1 149.52 100.199 0
1 154.86 100.199 0
1 160.2 100.199 0
1 165.54 100.199 0
1 170.88 100.199 0
1 176.22 100.199 0
1 181.56 100.199 0
1 186.9 100.199 0
1 192.24 100.199 0
1 197.58 100.199 0
1 202.92 100.199 0
1 208.26 100.199 0
1 0 100.199 0
1 5.34 103.282 0
1 10.68 103.282 0
1 16.02 103.282 0
1 21.36 103.282 0
1 26.7 103.282 0
1 32.04 103.282 0
1 37.38 103.282 0
1 42.72 103.282 0
1 48.06 103.282 0
1 53.4 103.282 0
1 58.74 103.282 0
1 64.08 103.282 0
1 69.42 103.282 0
1 74.76 103.282 0
1 80.1 103.282 0
1 85.44 103.282 0
1 90.78 103.282 0
1 96.12 103.282 0
1 101.46 103.282 0
1 106.8 103.282 0
1 112.14 103.282 0
1 117.48 103.282 0
1 122.82 103.282 0
1 128.16 103.282 0
1 133.5 103.282 0
1 138.84 103.282 0
1 144.18 103.282 0
1 149.52 103.282 0
1 154.86 103.282 0
1 160.2 103.282 0
1 165.54 103.282 0
1 170.88 103.282 0
1 176.22 103.282 0
1 181.56 103.282 0
1 186.9 103.282 0
1 192.24 103.282 0
1 197.58 103.282 0
1 202.92 103.282 0
1 208.26 103.282 0
1 0 103.282 0
1 5.34 106.365 0
1 10.68 106.365 0
1 16.02 106.365 0
1 21.36 106.365 0
1 26.7 106.365 0
1 32.04 106.365 0
1 37.38 106.365 0
1 42.72 106.365 0
1 48.06 106.365 0
1 53.4 106.365 0
1 58.74 106.365 0
1 64.08 106.365 0
1 69.42 106.365 0
1 74.76 106.365 0
1 80.1 106.365 0
1 85.44 106.365 0
1 90.78 106.365 0
1 96.12 106.365 0
1 101.46 106.365 0
1 106.8 106.365 0
1 112.14 106.365 0
1 117.48 106.365 0
1 122.82 106.365 0
1 128.16 106.365 0
1 133.5 106.365 0
1 138.84 106.365 0
1 144.18 106.365 0
1 149.52 106.365 0
1 154.86 106.365 0
1 160.2 106.365 0
1 165.54 106.365 0
1 170.88 106.365 0
1 176.22 106.365 0
1 181.56 106.365 0
1 186.9 106.365 0
1 192.24 106.365 0
1 197.58 106.365 0
1 202.92 106.365 0
1 208.26 106.365 0
1 0 106.365 0
1 5.34 109.448 0
1 10.68 109.448 0
1 16.02 109.448 0
1 21.36 109.448 0
1 26.7 109.448 0
1 32.04 109.448 0
1 37.38 109.448 0
1 42.72 109.448 0
1 48.06 109.448 0
1 53.4 109.448 0
1 58.74 109.448 0
1 64.08 109.448 0
1 69.42 109.448 0
1 74.76 109.448 0
1 80.1 109.448 0
1 85.44 109.448 0
1 90.78 109.448 0
1 96.12 109.448 0
1 101.46 109.448 0
1 106.8 109.448 0
1 112.14 109.448 0
1 117.48 109.448 0
1 122.82 109.448 0
1 128.16 109.448 0
1 133.5 109.448 0
1 138.84 109.448 0
1 144.18 109.448 0
1 149.52 109.448 0
1 154.86 109.448 0
1 160.2 109.448 0
1 165.54 109.448 0
1 170.88 109.448 0
1 176.22 109.448 0
1 181.56 109.448 0
1 186.9 109.448 0
1 192.24 109.448 0
1 197.58 109.448 0
1 202.92 109.448 0
1 208.26 109.448 0
1 0 109.448 0
1 5.34 112.531 0
1 10.68 112.531 0
1 16.02 112.531 0
1 21.36 112.531 0
1 26.7 112.531 0
1 32.04 112.531 0
1 37.38 112.531 0
1 42.72 112.531 0
1 48.06 112.531 0
1 53.4 112.531 0
1 58.74 112.531 0
1 64.08 112.531 0
1 69.42 112.531 0
1 74.76 112.531 0
1 80.1 112.531 0
1 85.44 112.531 0
1 90.78 112.531 0
1 96.12 112.531 0
1 101.46 112.531 0
1 106.8 112.531 0
1 112.14 112.531 0
1 117.48 112.531 0
1 122.82 112.531 0
1 128.16 112.531 0
1 133.5 112.531 0
1 138.84 112.531 0
1 144.18 112.531 0
1 149.52 112.531 0
1 154.86 112.531 0
1 160.2 112.531 0
1 165.54 112.531 0
1 170.88 112.531 0
1 176.22 112.531 0
1 181.56 112.531 0
1 186.9 112.531 0
1 192.24 112.531 0
1 197.58 112.531 0
1 202.92 112.531 0
1 208.26 112.531 0
1 0 112.531 0
1 5.34 115.614 0
1 10.68 115.614 0
1 16.02 115.614 0
1 21.36 115.614 0
1 26.7 115.614 0
1 32.04 115.614 0
1 37.38 115.614 0
1 42.72 115.614 0
1 48.06 115.614 0
1 53.4 115.614 0
1 58.74 115.614 0
1 64.08 115.614 0
1 69.42 115.614 0
1 74.76 115.614 0
1 80.1 115.614 0
1 85.44 115.614 0
1 90.78 115.614 0
1 96.12 115.614 0
1 101.46 115.614 0
1 106.8 115.614 0
1 112.14 115.614 0
1 117.48 115.614 0
1 122.82 115.614 0
1 128.16 115.614 0
1 133.5 115.614 0
1 138.84 115.614 0
1 144.18 115.614 0
1 149.52 115.614 0
1 154.86 115.614 0
1 160.2 115.614 0
1 165.54 115.614 0
1 170.88 115.614 0
1 176.22 115.614 0
1 181.56 115.614 0
1 186.9 115.614 0
1 192.24 115.614 0
1 197.58 115.614 0
1 202.92 115.614 0
1 208.26 115.614 0
1 0 115.614 0
1 5.34 118.697 0
1 10.68 118.697 0
1 16.02 118.697 0
1 21.36 118.697 0
1 26.7 118.697 0
1 32.04 118.697 0
1 37.38 118.697 0
1 42.72 118.697 0
1 48.06 118.697 0
1 53.4 118.697 0
1 58.74 118.697 0
1 64.08 118.697 0
1 69.42 118.697 0
1 74.76 118.697 0
1 80.1 118.697 0
1 85.44 118.697 0
1 90.78 118.697 0
1 96.12 118.697 0
1 101.46 118.697 0
1 106.8 118.697 0
1 112.14 118.697 0
1 117.48 118.697 0
1 122.82 118.697 0
1 128.16 118.697 0
1 133.5 118.697 0
1 138.84 118.697 0
1 144.18 118.697 0
1 149.52 118.697 0
1 154.86 118.697 0
1 160.2 118.697 0
1 165.54 118.697 0
1 170.88 118.697 0
1 176.22 118.697 0
1 181.56 118.697 0
1 186.9 118.697 0
1 192.24 118.697 0
1 197.58 118.697 0
1 202.92 118.697 0
1 208.26 118.697 0
1 0 118.697 0
1 5.34 121.781 0
1 10.68 121.781 0
1 16.02 121.781 0
1 21.36 121.781 0
1 26.7 121.781 0
1 32.04 121.781 0
1 37.38 121.781 0
1 42.72 121.781 0
1 48.06 121.781 0
1 53.4 121.781 0
1 58.74 121.781 0
1 64.08 121.781 0
1 69.42 121.781 0
1 74.76 121.781 0
1 80.1 121.781 0
1 85.44 121.781 0
1 90.78 121.781 0
1 96.12 121.781 0
1 101.46 121.781 0
1 106.8 121.781 0
1 112.14 121.781 0
1 117.48 121.781 0
1 122.82 121.781 0
1 128.16 121.781 0
1 133.5 121.781 0
1 138.84 121.781 0
1 144.18 121.781 0
1 149.52 121.781 0
1 154.86 121.781 0
1 160.2 121.781 0
1 165.54 121.781 0
1 170.88 121.781 0
1 176.22 121.781 0
1 181.56 121.781 0
1 186.9 121.781 0
1 192.24 121.781 0
1 197.58 121.781 0
1 202.92 121.781 0
1 208.26 121.781 0
1 0 121.781 0
1 5.34 1.5415 0
1 10.68 1.5415 0
1 16.02 1.5415 0
1 21.36 1.5415 0
1 26.7 1.5415 0
1 32.04 1.5415 0
1 37.38 1.5415 0
1 42.72 1.5415 0
1 48.06 1.5415 0
1 53.4 1.5415 0
1 58.74 1.5415 0
1 64.08 1.5415 0
1 69.42 1.5415 0
1 74.76 1.5415 0
1 80.1 1.5415 0
1 85.44 1.5415 0
1 90.78 1.5415 0
1 96.12 1.5415 0
1 101.46 1.5415 0
1 106.8 1.5415 0
1 112.14 1.5415 0
1 117.48 1.5415 0
1 122.82 1.5415 0
1 128.16 1.5415 0
1 133.5 1.5415 0
1 138.84 1.5415 0
1 144.18 1.5415 0
1 149.52 1.5415 0
1 154.86 1.5415 0
1 160.2 1.5415 0
1 165.54 1.5415 0
1 170.88 1.5415 0
1 176.22 1.5415 0
1 181.56 1.5415 0
1 186.9 1.5415 0
1 192.24 1.5415 0
1 197.58 1.5415 0
1 202.92 1.5415 0
1 208.26 1.5415 0
1 0 1.5415 0
1 8.01 3.08305 0
1 13.35 3.08305 0
1 18.69 3.08305 0
1 24.03 3.08305 0
1 29.37 3.08305 0
1 34.71 3.08305 0
1 40.05 3.08305 0
1 45.39 3.08305 0
1 50.73 3.08305 0
1 56.07 3.08305 0
1 61.41 3.08305 0
1 66.75 3.08305 0
1 72.09 3.08305 0
1 77.43 3.08305 0
1 82.77 3.08305 0
1 88.11 3.08305 0
1 93.45 3.08305 0
1 98.79 3.08305 0
1 104.13 3.08305 0
1 109.47 3.08305 0
1 114.81 3.08305 0
1 120.15 3.08305 0
1 125.49 3.08305 0
1 130.83 3.08305 0
1 136.17 3.08305 0
1 141.51 3.08305 0
1 146.85 3.08305 0
1 152.19 3.08305 0
1 157.53 3.08305 0
1 162.87 3.08305 0
1 168.21 3.08305 0
1 173.55 3.08305 0
1 178.89 3.08305 0
1 184.23 3.08305 0
1 189.57 3.08305 0
1 194.91 3.08305 0
1 200.25 3.08305 0
1 205.59 3.08305 0
1 210.93 3.08305 0
1 2.67 3.08305 0
1 8.01 6.1661 0
1 13.35 6.1661 0
1 18.69 6.1661 0
1 24.03 6.1661 0
1 29.37 6.1661 0
1 34.71 6.1661 0
1 40.05 6.1661 0
1 45.39 6.1661 0
1 50.73 6.1661 0
1 56.07 6.1661 0
1 61.41 6.1661 0
1 66.75 6.1661 0
1 72.09 6.1661 0
1 77.43 6.1661 0
1 82.77 6.1661 0
1 88.11 6.1661 0
1 93.45 6.1661 0
1 98.79 6.1661 0