6400
Atoms. Timestep: 39900000
1 -288.417 173.54 0
1 -745.878 -467.641 0
1 297.512 -436.997 0
1 -1439.5 322.989 0
1 -652.442 1027.88 0
1 187.827 415.404 0
1 -1200.72 807.16 0
1 -499.838 790.193 0
1 2101.26 1027.94 0
1 1875.51 133.033 0
1 -1543.88 -10.1663 0
1 1413.52 476.145 0
1 454.185 1195.68 0
1 526.734 -59.5242 0
1 -794.937 -798.42 0
1 -238.095 -544.476 0
1 289.082 -799.287 0
1 407.83 -978.762 0
1 -1099.33 16.1511 0
1 1424.62 -530.983 0
1 -985.826 542.504 0
1 750.982 601.847 0
1 -1728.59 471.214 0
1 -571.073 -269.429 0
1 -491.394 -550.119 0
1 -1075.08 -686.453 0
1 -850.082 502.214 0
1 1999.13 1168.82 0
1 -1379.77 -208.102 0
1 1669.57 19.2843 0
1 1974.44 -924.459 0
1 -827.462 -937.877 0
1 16.0687 241.897 0
1 1112.95 -401.516 0
1 2086.29 -968.227 0
1 608.186 -938.001 0
1 2030.15 -408.195 0
1 -581.775 -1085.27 0
1 1885.13 745.457 0
1 -1227.63 -197.424 0
1 466.668 -86.9605 0
1 1279.04 908.16 0
1 -762.372 1114.17 0
1 -267.9 -130.928 0
1 -356.374 -653.216 0
1 1305.09 329.335 0
1 348.986 710.884 0
1 808.459 -505.496 0
1 -1729.01 -578.156 0
1 110.55 592.88 0
1 -1408.65 -220.29 0
1 -1887.43 177.122 0
1 -862.233 598.923 0
1 -323.207 -1054.51 0
1 -1899.82 -889.274 0
1 -519.007 -447.177 0
1 2053.72 -25.6182 0
1 -835.538 -257.407 0
1 2030.22 -977.957 0
1 -1833.01 -431.908 0
1 47.0449 -691.986 0
1 45.5955 -448.339 0
1 -294.48 584.808 0
1 624.202 373.201 0
1 1872.69 717.032 0
1 -1214.7 -103.48 0
1 -817.565 -216.277 0
1 1435.26 677.977 0
1 894.448 -32.3981 0
1 -1871.75 1065.33 0
1 -794.833 344.484 0
1 -1577.81 652.472 0
1 -1248.53 -3.64245 0
1 1813.18 -544.256 0
1 -1429.65 367.097 0
1 -46.7551 974.438 0
1 920.456 -197.709 0
1 1098.81 85.3096 0
1 -1240.03 -549.928 0
1 820.385 -98.8536 0
1 -251.774 942.06 0
1 -772.319 937.629 0
1 266.638 250.788 0
1 -1779.57 718.389 0
1 1647.09 -414.893 0
1 1530.89 465.814 0
1 1948.39 739.437 0
1 2043.75 -876.534 0
1 492.522 281.33 0
1 952.755 36.9634 0
1 436.342 1152.86 0
1 935.935 951.667 0
1 1361.97 850.527 0
1 379.216 889.84 0
1 -1583.57 668.081 0
1 670.505 439.775 0
1 1080.74 360.478 0
1 -1077.93 1021.01 0
1 678.822 1210.33 0
1 892.272 -572.219 0
1 -1472.26 1075.68 0
1 -1552.81 358.613 0
1 216.948 732.166 0
1 1065.74 443.908 0
1 1410.84 674.644 0
1 -818.99 -431.901 0
1 1535.07 338.867 0
1 281.711 830.22 0
1 -918.463 159.239 0
1 -60.3328 195.351 0
1 -545.244 165.486 0
1 -739.249 -356.283 0
1 -1397.17 597.656 0
1 612.98 1038.9 0
1 2022.76 1033.93 0
1 2127.67 506.114 0
1 1286.8 231.689 0
1 211.149 -26.3225 0
1 -1720.71 830.981 0
1 1632.75 -96.0603 0
1 25.6097 1210.02 0
1 -1602.1 826.267 0
1 -793.462 -515.224 0
1 -2.61451 759.154 0
1 -1157.95 608.553 0
1 -1285.45 -84.8565 0
1 -1577.45 988.734 0
1 -121.229 79.76 0
1 1674.38 -921.677 0
1 1966.06 535.776 0
1 -700.85 -467.812 0
1 1449.06 -942.674 0
1 1826.15 128.658 0
1 -612.26 -896.704 0
1 1743.15 115.203 0
1 -203.749 1225.27 0
1 1405.65 820.348 0
1 793.191 -747.315 0
1 1987.08 360.547 0
1 -1043.05 -473.192 0
1 939.798 305.279 0
1 678.834 -609.775 0
1 1897.41 -293.268 0
1 -1845.05 457.398 0
1 2035.67 834.942 0
1 -855.188 -60.7004 0
1 -1910.67 -462.193 0
1 533.976 871.056 0
1 1194.91 -989.718 0
1 1887.28 -458.53 0
1 -720.787 145.835 0
1 -250.627 -952.011 0
1 437.943 -914.778 0
1 89.1054 -444.833 0
1 972.776 -861.259 0
1 828.089 249.211 0
1 -1248.14 181.449 0
1 1975.52 516.84 0
1 -1429.11 -1089.5 0
1 397.781 374.053 0
1 -987.551 -317.585 0
1 1970.46 968.964 0
1 991.115 1023.3 0
1 -1836.94 -0.742326 0
1 -658.523 228.476 0
1 -806.972 284.692 0
1 1643.04 762.454 0
1 1390.07 -638.772 0
1 100.517 -819.7 0
1 495.574 -510.188 0
1 -1026.62 -701.133 0
1 -1042.1 102.739 0
1 -609.544 -6.91528 0
1 -1449.82 31.5415 0
1 825.98 982.072 0
1 -1472.72 -1047.51 0
1 -569.035 -1060.61 0
1 897.039 397.892 0
1 -843.54 -852.817 0
1 331.057 638.863 0
1 -681.109 -854.246 0
1 2054.08 -939.109 0
1 580.57 524.924 0
1 458.938 1114.95 0
1 -106.572 -979.119 0
1 -1155.23 935.265 0
1 999.144 144.843 0
1 612.657 -420.253 0
1 348.147 683.217 0
1 -649.026 401.731 0
1 -341.096 -458.79 0
1 868.54 852.381 0
1 1471.11 1040.26 0
1 858.094 977.284 0
1 -589.103 278.603 0
1 -282.22 -245.83 0
1 1975.29 851.982 0
1 -1518.89 581.069 0
1 639.979 -907.476 0
1 221.421 164.039 0
1 170.434 -607.36 0
1 1688.17 -752.704 0
1 369.723 -232.374 0
1 -538.223 736.972 0
1 -1314.68 113.904 0
1 1731.65 -411.14 0
1 1183.98 -6.98698 0
1 -1466.5 -371.151 0
1 501.961 -940.682 0
1 -1333.39 -1073.6 0
1 -337.521 -104.389 0
1 1402.64 1053.48 0
1 -1854.88 -432.007 0
1 661.772 -771.629 0
1 -455.248 -331.731 0
1 -1863.32 639.326 0
1 -176.746 -784.756 0
1 -513.054 -262.6 0
1 -511.161 405.414 0
1 -343.948 -559.926 0
1 -221.554 -252.444 0
1 1564.95 -1099.72 0
1 -656.934 -176.135 0
1 -336.215 -990.256 0
1 -994.204 508.079 0
1 -557.862 -873.74 0
1 319.272 -1095.13 0
1 -585.763 424.423 0
1 -350.749 37.9065 0
1 -1245.36 897.173 0
1 1825.96 581.114 0
1 -770.313 -97.5329 0
1 1694.43 63.5789 0
1 -1695.3 -304.623 0
1 309.603 -962.317 0
1 1054.05 429.103 0
1 1768.86 966.995 0
1 1380.73 105.943 0
1 -69.132 -599.053 0
1 1186.92 -481.247 0
1 299.597 922.885 0
1 978.773 -381.206 0
1 1709.17 854.531 0
1 -1693.23 262.942 0
1 -1867.08 316 0
1 -984.627 699.01 0
1 804.828 -116.627 0
1 19.4232 -556.41 0
1 1870.72 787.803 0
1 905.794 98.9862 0
1 -1709.09 895.202 0
1 1854.02 709.348 0
1 -548.353 793.122 0
1 -1188.49 700.996 0
1 -394.732 -547.769 0
1 1748.65 648.02 0
1 -1777.91 1092.69 0
1 -650.23 643.393 0
1 399.16 161.314 0
1 1950.14 132.987 0
1 -934.759 -79.4418 0
1 1363.27 731.833 0
1 -1291.59 334.737 0
1 446.231 -937.082 0
1 612.619 1027.46 0
1 568.046 -59.9171 0
1 1950.55 1109.57 0
1 174.999 -669.396 0
1 1221.21 113.708 0
1 1696.88 -127.759 0
1 1664.23 -466.448 0
1 2096.21 -1013.2 0
1 2118.45 -387.566 0
1 673.048 1144.08 0
1 15.9824 860.939 0
1 1497.53 565.008 0
1 -1085.76 -492.029 0
1 1528.5 18.2542 0
1 1457.2 625.737 0
1 2126.93 -956.071 0
1 2100.13 864.384 0
1 -1831.36 375.59 0
1 5.36807 -126.146 0
1 165.037 -836.408 0
1 -50.1663 -829.32 0
1 -1599.97 800.227 0
1 1486.37 -4.99465 0
1 181.2 -302.606 0
1 -384.46 -585.225 0
1 -1880.63 -169.421 0
1 620.339 51.9802 0
1 -1086.22 -454.472 0
1 125.368 560.617 0
1 -1412.59 547.625 0
1 -772.525 -270.39 0
1 -928.598 700.023 0
1 -1905.59 -592.501 0
1 566.772 362.204 0
1 757.22 298.787 0
1 1939.56 961.77 0
1 -1529.72 825.069 0
1 1336.19 694.991 0
1 36.9136 704.065 0
1 -776.664 -871.911 0
1 -165.376 -433.04 0
1 -623.662 -319.989 0
1 960.652 -417.494 0
1 1408.4 31.6388 0
1 -885.793 263.008 0
1 -1332.35 567.945 0
1 -1719.79 -842.152 0
1 227.646 -49.0887 0
1 1808.55 -142.989 0
1 167.817 1182.71 0
1 -1753.23 -362.285 0
1 741.814 -900.589 0
1 54.4975 -228.896 0
1 -1177.57 -598.567 0
1 -26.677 -764.948 0
1 -1056.61 808.592 0
1 1711.77 -983.505 0
1 -1814.11 468.182 0
1 -49.2138 1073.17 0
1 -841.681 -663.042 0
1 469.205 -713.476 0
1 303.811 1012.17 0
1 1112.45 -64.3522 0
1 1370.59 -278.225 0
1 108.024 653.248 0
1 562.086 219.776 0
1 565.481 1180.13 0
1 1124.53 271.196 0
1 693.65 685.798 0
1 587.9 -953.349 0
1 -91.1158 -907.93 0
1 2032.98 261.172 0
1 -563.644 632.188 0
1 -863.978 -773.912 0
1 -1836.6 -357.228 0
1 -1725.05 -786.381 0
1 341.205 -596.745 0
1 -813.081 112.419 0
1 1289.54 969.385 0
1 1327.21 -376.844 0
1 417.711 -924.651 0
1 172.337 864.425 0
1 454.795 778.584 0
1 2065.53 880.135 0
1 756.364 -233.768 0
1 -1190.43 -658.365 0
1 -1575.52 696.657 0
1 -418.114 861.643 0
1 -1741.07 -526.816 0
1 -1665.71 675.981 0
1 768.732 510.413 0
1 -1884.9 554.951 0
1 1368.33 514.68 0
1 -1144.29 631.887 0
1 -872.834 944.257 0
1 -824.533 712.404 0
1 844.728 -1097.83 0
1 -738.97 -215.205 0
1 -905.743 -897.653 0
1 650.366 -806.855 0
1 -560.075 719.742 0
1 -1881.56 -782.752 0
1 -1833.41 -1082.31 0
1 693.366 -875.814 0
1 -1552.66 856.233 0
1 -1167.56 26.5908 0
1 -1210.76 -711.78 0
1 -1626.53 400.237 0
1 -1282.49 -250.131 0
1 178.857 -1004.12 0
1 1277.7 681.597 0
1 1900.08 -688.278 0
1 1048.08 -650.737 0
1 1617.72 893.885 0
1 2073.77 -494.583 0
1 -1121.72 976.041 0
1 907.355 1112.33 0
1 -1861.92 -637.504 0
1 866.117 1137.73 0
1 -731.127 -1032.94 0
1 1390.68 142.368 0
1 -1345.72 -40.5141 0
1 -802.248 -682.393 0
1 17.2939 -237.199 0
1 1275.21 973.897 0
1 -1658.07 -383.342 0
1 1219.82 378.71 0
1 -272.814 1166.3 0
1 79.6862 593.643 0
1 -1544.84 -755.804 0
1 1592.2 -811.077 0
1 1387.85 239.662 0
1 -1596.12 1038.98 0
1 -1225.96 -957.555 0
1 -1325.89 599.299 0
1 225.438 -837.381 0
1 -370.236 -645.929 0
1 738.951 325.194 0
1 -330.192 876.731 0
1 1897.72 142.595 0
1 336.688 131.99 0
1 253.904 -571.243 0
1 -1334.28 895.625 0
1 -32.7467 877.573 0
1 -800.051 91.3964 0
1 1721.05 -676.387 0
1 -387.901 -967.622 0
1 -1032.71 -956.034 0
1 -1451.28 132.626 0
1 -226.478 -332.09 0
1 565.437 612.752 0
1 1092.31 556.908 0
1 162.186 434.4 0
1 424.092 597.516 0
1 496.579 -291.733 0
1 -920.279 -625.927 0
1 -715.592 492.514 0
1 -793.782 -927.102 0
1 -1511.99 -696.406 0
1 49.44 295.291 0
1 -466.937 -564.287 0
1 -113.283 661.986 0
1 -1711.1 683.591 0
1 1918.89 515.14 0
1 -1836.94 506.203 0
1 -1154.17 333.683 0
1 324.974 -181.221 0
1 1087.81 937.631 0
1 -576.636 -1018.21 0
1 -1670.59 758.263 0
1 -1070.72 757.757 0
1 -171.054 -885.224 0
1 -1500.5 423.841 0
1 -1753.44 54.132 0
1 37.4679 245.134 0
1 -1250.8 -982.29 0
1 1480.12 -2.829 0
1 -234.972 970.506 0
1 -1874.96 -144.863 0
1 1196.93 -988.497 0
1 -1396.7 -856.23 0
1 -1181.46 722.438 0
1 977.062 76.8976 0
1 839.939 -862.557 0
1 342.395 54.594 0
1 2100.15 -611.802 0
1 199.418 -476.706 0
1 -136.296 -95.0732 0
1 1915.2 117.525 0
1 -393.493 820.361 0
1 686.976 -203.415 0
1 -1415.25 -710.336 0
1 -1292.64 626.257 0
1 -1821.26 548.183 0
1 -1757.27 10.884 0
1 1291.03 677.548 0
1 -1669.42 -516.896 0
1 1656.34 653.056 0
1 -933.127 747.366 0
1 1538.44 -995.985 0
1 482.289 -318.418 0
1 1445.95 886.517 0
1 -357.509 -112.297 0
1 2023.83 1049.81 0
1 1961.11 -824.831 0
1 -354.39 -875.519 0
1 177.225 115.421 0
1 583.631 -39.2979 0
1 1179.66 -458.661 0
1 -997.011 -1065.66 0
1 770.559 -870.028 0
1 -262.43 -112.053 0
1 1268.46 405.977 0
1 1176.43 -615.41 0
1 10.3964 -970.63 0
1 2025.48 133.837 0
1 -529.318 -1.82563 0
1 2072.55 671.259 0
1 1629.53 -171.149 0
1 2010.68 891.993 0
1 2054.31 -941.493 0
1 -194.694 -347.7 0
1 214.871 733.514 0
1 -1455.79 -589.732 0
1 1550.07 738.688 0
1 570.055 770.751 0
1 897.274 1096.46 0
1 -971.437 395.887 0
1 1093.77 -706.692 0
1 -1033.65 1225.91 0
1 -1478.6 1048.61 0
1 -796.085 615.634 0
1 1849.2 -88.6801 0
1 -846.021 -492.193 0
1 1027.51 -86.0238 0
1 1939.66 -167.368 0
1 543.76 1077.83 0
1 975.628 -615.938 0
1 -706.239 -971.893 0
1 175.206 443.912 0
1 -286.661 945.277 0
1 231.966 -944.645 0
1 845.378 -195.652 0
1 1512.72 -968.068 0
1 -1600.73 486.841 0
1 168.508 -272.832 0
1 1358.9 -46.7865 0
1 421.524 -810.648 0
1 514.018 -347.074 0
1 -1473.73 -804.897 0
1 -272.493 1209.51 0
1 -465.244 586.401 0
1 -107.63 -776.712 0
1 1973.45 1109.63 0
1 -704.842 444.947 0
1 692.651 688.292 0
1 1604.04 537.584 0
1 333.243 1021.73 0
1 101.698 -1003.29 0
1 2015.27 -496.753 0
1 -151.928 532.281 0
1 -440.939 -1101.54 0
1 1588.6 307.918 0
1 702.06 -734.777 0
1 483.975 882.426 0
1 1685.42 641.526 0
1 413.393 -1042.11 0
1 1586.09 -84.6154 0
1 1959.51 -987.648 0
1 -1750.96 1211.54 0
1 -1268.94 525.646 0
1 -872.781 -601.448 0
1 -1379.19 -889.344 0
1 -1744.99 -143.192 0
1 106.292 69.3799 0
1 1521.77 470.222 0
1 -1212.84 686.115 0
1 -9.51185 829.641 0
1 918.548 -71.8638 0
1 -1179.92 357.824 0
1 -1432.11 265.365 0
1 -1354.86 1066.66 0
1 -296.609 -879.231 0
1 -588.937 -556.398 0
1 129.18 -99.6063 0
1 1531.68 1210.16 0
1 -1040.84 643.71 0
1 392.13 1104.9 0
1 -732.273 411.354 0
1 -1069.88 -70.7117 0
1 384.119 -533.611 0
1 3.98338 696.285 0
1 -1121.77 1174.96 0
1 409.894 -281.183 0
1 -1342.5 -791.959 0
1 160.656 -708.728 0
1 476.579 987.645 0
1 -716.445 -578.453 0
1 1626.6 -335.106 0
1 636.762 -785.801 0
1 -182.384 514.885 0
1 1502.18 325.532 0
1 89.2574 915.449 0
1 -1321.25 97.3666 0
1 -162.995 -86.8112 0
1 -393.868 -90.927 0
1 622.802 167.158 0
1 1855.25 -168.982 0
1 -362.38 187.65 0
1 1338.66 -620.149 0
1 1025.36 -368.586 0
1 -1845.9 696.461 0
1 -1813.75 993.167 0
1 -155.442 759.291 0
1 -956.277 -47.4125 0
1 -1210.9 -149.208 0
1 1710.48 850.243 0
1 -1626.55 108.576 0
1 928.461 1198.33 0
1 605.014 -370.399 0
1 1192.47 -713.663 0
1 1426.93 -257.116 0
1 684.33 466.823 0
1 1144.32 -1046.99 0
1 776.396 975.974 0
1 1042.6 1009.87 0
1 -287.322 -86.6731 0
1 -960.005 519.589 0
1 124.688 717.376 0
1 -751.645 -459.169 0
1 -1895.2 -521.548 0
1 715.526 349.346 0
1 933.977 131.676 0
1 -216.669 227.6 0
1 919.768 -513.025 0
1 2122.8 946.572 0
1 -112.517 -259.864 0
1 -529.725 477.986 0
1 -149.602 369.138 0
1 -711.915 -420.271 0
1 601.965 -989.662 0
1 -1369.76 -1092.96 0
1 1796.07 149.342 0
1 612.846 -234.034 0
1 -1899.02 -210.057 0
1 443.816 -17.453 0
1 -1408.79 898.753 0
1 -9.7989 903.222 0
1 -1064.77 678.039 0
1 526.014 -23.5576 0
1 -967.626 605.462 0
1 403.037 -380.216 0
1 64.2209 1173.63 0
1 1949.71 412.609 0
1 867.499 -66.9774 0
1 -234.752 259.614 0
1 1170.22 -747.3 0
1 -377.524 -1047.17 0
1 1178.12 -1026.31 0
1 -1367.07 288.18 0
1 -137.248 6.10435 0
1 -926.361 365.749 0
1 1958.91 -514.538 0
1 -1800.58 -534.634 0
1 -792.759 -936.165 0
1 -1540.46 -177.136 0
1 -257.109 -126.254 0
1 360.971 -1013.87 0
1 1691.27 474.695 0
1 -697.925 -61.3978 0
1 1793.99 -779.461 0
1 227.075 171.954 0
1 743.974 695.678 0
1 -9.18317 582.89 0
1 1512.51 960.293 0
1 -1099.58 -548.713 0
1 459.465 937.938 0
1 -1080.17 -510.555 0
1 -162.661 -849.238 0
1 -1653.27 17.4732 0
1 -1701.5 913.019 0
1 85.599 879.446 0
1 286.434 1117.62 0
1 956.862 -986.888 0
1 -1677.68 -454.734 0
1 -612.994 501.248 0
1 1626.33 -715.894 0
1 -202.636 -89.2565 0
1 491.544 1222.1 0
1 1973.6 -1019.14 0
1 -1529.96 -1059.47 0
1 1139.24 -362.298 0
1 -1562.84 -486.808 0
1 880.589 893.27 0
1 -142.747 930.826 0
1 -941.454 719.367 0
1 110.217 534.432 0
1 -794.129 353.321 0
1 -1120.87 -408.39 0
1 -1279.54 811.469 0
1 -518.411 982.484 0
1 524.303 619.497 0
1 -1882.97 -584.966 0
1 1376.11 1176.28 0
1 511.18 947.615 0
1 1704.41 749.806 0
1 1338.06 112.111 0
1 1836.72 314.16 0
1 1492.36 -342.77 0
1 1063.71 -848.319 0
1 373.089 872.968 0
1 1609.6 536.999 0
1 -1775.87 614.68 0
1 -204.039 567.332 0
1 960.97 115.924 0
1 1316.29 -172.097 0
1 -1760.29 1135.66 0
1 358.806 -766.363 0
1 134.926 -1012.65 0
1 495.571 713.665 0
1 -1554.05 -123.678 0
1 835.653 285.028 0
1 978.216 1223.88 0
1 -1465.83 -784.409 0
1 -1036.44 1142.97 0
1 896.466 -182.778 0
1 -685.707 -579.388 0
1 1884.04 101.704 0
1 -922.993 152.937 0
1 1688.94 971.569 0
1 -471.177 -253.734 0
1 -1627.49 97.8 0
1 1452.55 666.423 0
1 484.605 597.435 0
1 400.34 71.7418 0
1 -101.136 -425.337 0
1 203.272 81.2241 0
1 -1459.63 -176.308 0
1 1294.12 548.7 0
1 1841.7 499.659 0
1 242.785 -501.655 0
1 994.393 1128.25 0
1 -444.229 -1017.06 0
1 1593.8 -479.439 0
1 -1852.77 249.251 0
1 275.934 679.2 0
1 -115.509 -271.677 0
1 547.718 770.605 0
1 1852.22 707.62 0
1 -855.07 -15.1173 0
1 -331.484 1109.92 0
1 2113.75 77.2893 0
1 -143.745 528.452 0
1 1936.1 1081.39 0
1 -1510.4 502.556 0
1 -785.699 1135.26 0
1 872.548 -1081.49 0
1 1797.55 -825.104 0
1 -1906.93 -88.0862 0
1 -1625.91 -943.426 0
1 980.203 -1015.72 0
1 422.696 256.173 0
1 1827.82 1002.32 0
1 98.8351 -691.29 0
1 -701.413 -731.209 0
1 -624.377 673.058 0
1 740.351 -696.024 0
1 1941.31 992.043 0
1 -1843.17 680.051 0
1 -908.381 166.62 0
1 1314.93 -333.603 0
1 1895.69 102.341 0
1 -345.142 -606.877 0
1 1780.18 435.199 0
1 902.236 -306.121 0
1 340.526 437.914 0
1 -1806.04 -702.654 0
1 -744.763 -469.73 0
1 964.355 -497.389 0
1 -951.011 469.898 0
1 1133.48 -691.734 0
1 -994.608 190.049 0
1 1092.14 -239.351 0
1 1870.74 -129.074 0
1 1889.36 -750.219 0
1 -337.917 -1047.36 0
1 1852.34 393.381 0
1 -533.971 890.181 0
1 98.3226 1131.41 0
1 -1902.91 320.601 0
1 -533.046 113.606 0
1 192.908 -783.948 0
1 -598.82 -1057.91 0
1 -1604.15 -307.861 0
1 -592.989 -602.483 0
1 335.028 -584.911 0
1 1794.33 763.078 0
1 695.657 -8.9861 0
1 76.2526 830.613 0
1 -91.7827 528.192 0
1 -397.696 -967.734 0
1 -1362.18 -1047.52 0
1 1493.74 -216.558 0
1 -1201.38 883.435 0
1 -506.67 388.666 0
1 -60.812 -475.266 0
1 -1380.48 -637.479 0
1 -1610.58 773.488 0
1 -1044.77 373.834 0
1 -1002.15 732.704 0
1 -812.482 -840.335 0
1 1535.44 -780.631 0
1 -1751.07 -95.5537 0
1 95.3076 261.44 0
1 649.562 67.0434 0
1 -1907.74 -230.745 0
1 -547.074 -79.7867 0
1 -261.239 -603.21 0
1 615.484 -112.39 0
1 1551.3 803.286 0
1 -333.553 503.468 0
1 -1187.06 16.9082 0
1 -539.239 -124.199 0
1 -1129.55 -762.371 0
1 598.594 -741.734 0
1 2124.94 945.426 0
1 -408.634 917.171 0
1 2108.07 -403.281 0
1 -1403.57 -679.276 0
1 2001.73 -617.472 0
1 -1577.94 -1087.69 0
1 -1496.57 -1083.88 0
1 -1811.4 -865.128 0
1 737.798 444.274 0
1 998.943 -534.624 0
1 -1850.9 285.619 0
1 -1136.8 -1062.57 0
1 153.312 370.478 0
1 707.602 787.011 0
1 487.407 139.56 0
1 -1716.36 -5.43935 0
1 1372.07 -666.954 0
1 1185.31 1071.8 0
1 -816.292 276.651 0
1 -859.631 -1093.1 0
1 -1191.51 227.933 0
1 658.25 1159.75 0
1 1353.11 -586.656 0
1 -117.1 581.924 0
1 1048.46 801.627 0
1 1095.28 -491.99 0
1 1134.92 -229.525 0
1 165.005 -10.9543 0
1 727.15 -211.695 0
1 -1647.68 935.568 0
1 -1681.78 29.3984 0
1 -535.798 844.762 0
1 114.962 581.218 0
1 -836.274 -932.434 0
1 -1282.41 818.229 0
1 405.872 38.4949 0
1 1632.31 233.747 0
1 -559.417 1112.87 0
1 -1308.67 1111.28 0
1 1398.06 1098.09 0
1 2074.34 -642.928 0
1 -814.43 -102.779 0
1 215.019 -176.093 0
1 -1178.22 1174.75 0
1 484.764 1045.46 0
1 512.359 -118.259 0
1 -363.985 961.388 0
1 -621.65 -1045.46 0
1 -565.874 -104.394 0
1 1015.17 574.704 0
1 1694.73 1008.57 0
1 -55.4352 -622.622 0
1 -1078.72 -436.541 0
1 647.738 -475.493 0
1 -619.613 -304.451 0
1 -68.3995 30.5706 0
1 -320.972 323.513 0
1 -814.088 705.603 0
1 1729.02 -211.032 0
1 -176.439 405.932 0
1 1315.66 1007.84 0
1 -1773.25 766.031 0
1 -1183.44 -728.534 0
1 310.628 1207.38 0
1 -1618.26 1011.08 0
1 249.775 -412.95 0
1 -1899.58 1211.77 0
1 -686.465 100.695 0
1 -729.845 -891.274 0
1 1822.16 1086.03 0
1 1518.08 -560.098 0
1 -249.937 705.148 0
1 1942.97 -19.5366 0
1 -1328.48 813.539 0
1 -806.208 371.793 0
1 -1356.93 -957.723 0
1 731.868 816.819 0
1 699.632 -845.349 0
1 825.614 -950.548 0
1 1869.32 -143.819 0
1 -94.2727 221.672 0
1 1396.53 -383.197 0
1 1739.75 -453.79 0
1 -1662.41 832.703 0
1 960.091 -39.7347 0
1 1685.33 858.869 0
1 668.495 -781.32 0
1 -1653.27 -212.38 0
1 -1830.82 786.342 0
1 1364.22 492.51 0
1 -1118.56 -728.08 0
1 -1157.69 -712.137 0
1 2110.14 24.3227 0
1 -1489.75 1004.08 0
1 -705.012 467.083 0
1 1141.13 445.565 0
1 -549.758 1226.75 0
1 -365.035 524.125 0
1 -1667.31 -850.269 0
1 1267.18 10.8155 0
1 -820.576 1118.86 0
1 516.642 -238.203 0
1 -461.822 661.976 0
1 57.2172 66.9849 0
1 -569.593 -639.04 0
1 -1103.11 466.571 0
1 395.316 -577.694 0
1 1323.14 -321.644 0
1 1407.73 -17.9 0
1 1356.19 -610.381 0
1 1868.05 -180.465 0
1 -1060.29 -196.899 0
1 990.23 1044.68 0
1 1652.12 -783.32 0
1 -539.335 -1095.36 0
1 1216.79 707.382 0
1 -914.494 -716.52 0
1 -1837.09 -476.212 0
1 1634.26 -599.96 0
1 1939.79 82.357 0
1 357.906 963.842 0
1 -1402.81 -27.6431 0
1 -729.87 -596.856 0
1 -179.776 1132.54 0
1 -1059.23 633.955 0
1 1142.1 -1045.88 0
1 -362.381 295.533 0
1 -1650.69 35.3814 0
1 -1116.5 852.22 0
1 -1391 -505.301 0
1 -1603.65 216.377 0
1 -1049.84 529.688 0
1 -192.669 1150.73 0
1 1282.6 -554.028 0
1 -1312.33 114.678 0
1 -953.255 -573.786 0
1 -270.438 -584.712 0
1 -1236.27 510.459 0
1 -1663.63 607.259 0
1 -316.369 992.063 0
1 1517.27 1017.91 0
1 693.26 961.848 0
1 -1757.03 981.561 0
1 -1271.7 531.777 0
1 669.206 610.331 0
1 -1246.99 -58.8973 0
1 469.24 -361.378 0
1 102.525 983.545 0
1 675.278 866.926 0
1 -1796.99 -561.447 0
1 1821.86 1118.99 0
1 -815.009 33.3753 0
1 1145.47 994.991 0
1 -1646.08 625.222 0
1 529.143 -628.838 0
1 243.989 -459.902 0
1 1457.9 920.064 0
1 1062.06 725.474 0
1 1497.67 731.678 0
1 102.102 -411.13 0
1 1058.27 800.686 0
1 1859.7 931.746 0
1 741.782 238.822 0
1 950.344 -215.205 0
1 -1137.54 443.355 0
1 1940.43 359.431 0
1 -1574.49 -669.367 0
1 878.32 -627.603 0
1 -1592.05 -890.649 0
1 -44.0642 235.742 0
1 -961.004 -1052.59 0
1 -1485.13 932.527 0
1 541.619 -184.101 0
1 -1021.81 -951.329 0
1 231.093 -494.177 0
1 -339.952 -363.06 0
1 927.126 -941.605 0
1 1895 -350.076 0
1 1451.67 -672.025 0
1 -1068.28 1101.5 0
1 -100.349 -463.897 0
1 -904.712 -616.014 0
1 -1790.4 825.381 0
1 -273.723 613.252 0
1 1722.78 -932.154 0
1 180.737 797.006 0
1 4.23243 803.433 0
1 678.003 21.8841 0
1 755.132 979.343 0
1 1664.17 1204.07 0
1 1370.31 -699.844 0
1 693.472 48.6383 0
1 1906.55 176.964 0
1 -1695.17 836.782 0
1 -1384.31 218.719 0
1 -1236.56 314.884 0
1 966.681 1002.54 0
1 114.78 42.8713 0
1 -890.882 -562.88 0
1 2017 -1013.18 0
1 1791.14 305.567 0
1 1461.75 633.275 0
1 19.7826 -204.191 0
1 -368.534 61.4576 0
1 1938.67 -0.295084 0
1 -1065.48 -540.61 0
1 -288.941 898.652 0
1 116.472 -959.302 0
1 1281.25 -190.365 0
1 1606.62 -1038.7 0
1 524.984 609.281 0
1 1856.14 567.784 0
1 1774.37 -297.611 0
1 -827.514 610.302 0
1 -1241.19 183.11 0
1 -823.721 1019.94 0
1 56.1021 922.8 0
1 217.041 -1061.9 0
1 1093.88 -747.02 0
1 1442.07 -272.673 0
1 -903.952 306.444 0
1 -188.974 211.769 0
1 85.6765 1153.73 0
1 -1196.81 1167.29 0
1 -1602 -640.926 0
1 -76.11 594.524 0
1 210.058 1168.99 0
1 1401.87 1021.86 0
1 -464.265 -211.147 0
1 417.266 -534.519 0
1 1420.04 -112.511 0
1 -131.612 -280.767 0
1 -99.8725 349.914 0
1 1170.42 775.074 0
1 -1040.36 60.1134 0
1 1264.71 -695.301 0
1 -980.414 -947.483 0
1 -175.943 466.601 0
1 -1274.72 339.146 0
1 -461.847 -919.371 0
1 1884.4 786.106 0
1 1284.7 -1003.9 0
1 733.231 -1003.85 0
1 3.50106 129.535 0
1 -1124.24 1088.3 0
1 -1134.64 -1086.83 0
1 1641.84 346.453 0
1 -601.673 -56.3438 0
1 123.419 -755.591 0
1 2052.32 -937.131 0
1 -1473.55 -1001.75 0
1 1350.04 907.45 0
1 558.946 -754.366 0
1 -173.492 -888.209 0
1 1692.72 1007.97 0
1 1423.96 1048.66 0
1 -1886.45 -58.9692 0
1 1645.76 434.91 0
1 1787.25 945.188 0
1 -1410.03 -618.132 0
1 -371.332 800.994 0
1 -1578.06 1084.37 0
1 -67.2369 -248.651 0
1 -1907.59 900.166 0
1 1221.25 498.098 0
1 1654.01 -1100.08 0
1 -1743.43 -169.632 0
1 -1077.4 237.099 0
1 141.134 1209.63 0
1 237.848 980.249 0
1 1598.89 1221.64 0
1 714.96 -413.874 0
1 19.0125 213.794 0
1 536.656 310.391 0
1 1905.7 -787.215 0
1 1323.89 -55.7245 0
1 -1721.1 833.249 0
1 1518.11 922.078 0
1 -1576.2 1033.06 0
1 -1151.63 -872.487 0
1 125.662 -207.9 0
1 2003.84 -1077.53 0
1 1621.99 -782.547 0
1 1280.5 967.436 0
1 157.229 354.347 0
1 892.323 1078.91 0
1 1489.62 -356.761 0
1 -649.921 1214.3 0
1 1474.41 -763.578 0
1 -1310.89 1025.95 0
1 135.852 127.373 0
1 -237.513 -541.941 0
1 891.852 -252.069 0
1 1062 69.4459 0
1 1814.86 1104.62 0
1 1496.44 434.534 0
1 1826.2 -554.595 0
1 -470.86 -1075.82 0
1 -1102.34 -568.488 0
1 -185.35 540.277 0
1 407.762 760.166 0
1 1601.86 721.61 0
1 1747.33 -425.506 0
1 -426.759 58.4483 0
1 -1896.6 -575.371 0
1 243.515 -414.599 0
1 -1316.01 1221.59 0
1 813.503 -674.655 0
1 -1316.34 386.28 0
1 -1382.5 -523.149 0
1 -923.023 290.18 0
1 -686.719 -10.0355 0
1 -1107.68 -380.867 0
1 1785.59 -88.2315 0
1 -260.497 937.284 0
1 -327.499 917.204 0
1 -1201.4 125.18 0
1 523.192 257.157 0
1 312.753 1150.93 0
1 61.514 328.574 0
1 286.514 -514.697 0
1 1754.29 681.246 0
1 -1144.82 865.609 0
1 -1717.84 -241.839 0
1 -36.6901 1130.81 0
1 -1914.21 451.097 0
1 633.266 452.445 0
1 399.434 -320.45 0
1 -750.345 414.035 0
1 850.319 1163.53 0
1 1335.26 -415.313 0
1 4.18331 815.081 0
1 -1462.55 25.1645 0
1 669.401 790.698 0
1 -186.85 563.725 0
1 -828.698 460.879 0
1 -1149.55 770.332 0
1 1292.28 -955.117 0
1 1297.36 63.2251 0
1 2070.72 996.611 0
1 -1710.15 -27.4951 0
1 -140.924 -827.19 0
1 923.464 420.403 0
1 912.453 -363.766 0
1 -23.3558 274.151 0
1 1820.06 1081.73 0
1 -1384.23 -348.571 0
1 342.723 -644.281 0
1 10.0071 1041.99 0
1 -112.138 470.892 0
1 704.696 1209.99 0
1 -430.193 958.072 0
1 1389.04 1041.13 0
1 1680.33 -126.379 0
1 1822.43 1067.67 0
1 -1038.72 1226.59 0
1 1916.39 -161 0
1 -1292.02 211.365 0
1 -1319.58 411.373 0
1 -1672.87 55.5137 0
1 489.05 237.916 0
1 -907.757 -562.107 0
1 1121.54 658.667 0
1 104.878 912.014 0
1 -597.194 -690.49 0
1 119.318 -381.948 0
1 -1594.36 225.778 0
1 -1910.41 -281.45 0
1 1745.22 663.668 0
1 1797.62 919.369 0
1 -1310.59 -123.613 0
1 -838.502 -289.522 0
1 -1056.59 -415.881 0
1 -1893.35 -975.221 0
1 391.434 770.542 0
1 -436.239 -665.673 0
1 926.246 -768.948 0
1 1671.83 -197.37 0
1 -1240.7 -1021.38 0
1 -1777.38 76.2694 0
1 1237.39 1017.52 0
1 1763.1 -119.142 0
1 455.59 -393.962 0
1 1646.54 -1089.65 0
1 887.834 560.264 0
1 -672.841 -463.35 0
1 -875.93 911.694 0
1 -1019.39 -122.998 0
1 -1647.43 -548.432 0
1 -1891.95 390.984 0
1 1173.16 427.062 0
1 -235.718 1042.49 0
1 -1201.7 881.283 0
1 -413.32 -507.668 0
1 822.397 785.581 0
1 1485.45 764.619 0
1 2116.81 -346.402 0
1 258.759 186.279 0
1 -1905.09 687.879 0
1 408.783 -694.426 0
1 -1904.13 -62.2025 0
1 722.815 -430.391 0
1 -259.787 797.895 0
1 -717.465 1101.21 0
1 -688.864 847.827 0
1 -15.0173 291.086 0
1 -1706.67 700.202 0
1 -239.906 -240.425 0
1 -1686.11 737.093 0
1 548.551 488.125 0
1 374.661 -152.796 0
1 -1102.05 -56.9921 0
1 1741.63 -359.031 0
1 -403.383 1180.47 0
1 2079.38 878.832 0
1 -1044.75 -146.444 0
1 -1395.73 535.194 0
1 -655.671 -530.043 0
1 -850.487 629.23 0
1 1618.66 640.297 0
1 -359.651 821.102 0
1 1028.22 -599.529 0
1 797.639 -824.504 0
1 194.848 -671.326 0
1 319.866 -39.0799 0
1 1249.89 135.302 0
1 1231 -1060.88 0
1 2026.49 -711.05 0
1 -853.737 -63.0218 0
1 2002.99 -715.62 0
1 -1628.07 234.534 0
1 631.965 -1056.71 0
1 1852.37 -142.483 0
1 -1600.82 82.5975 0
1 -1520.64 192.85 0
1 521.972 389.574 0
1 1962.06 -172.536 0
1 -562.989 -744.796 0
1 1785.89 -771.248 0
1 342.325 619.893 0
1 -1026.29 1223.59 0
1 -1280.27 202.606 0
1 1247.09 1035.24 0
1 -1323.45 129.068 0
1 784.077 304.836 0
1 1430.72 -511.607 0
1 -1909.06 -764.067 0
1 1708.74 -509.116 0
1 -681.439 577.965 0
1 -1377.44 141.857 0
1 1317.57 767.268 0
1 -138.683 948.458 0
1 204.002 865.476 0
1 1669.9 308.045 0
1 1517.8 -244.347 0
1 -1042.38 763.084 0
1 -426.044 136.546 0
1 -1144.23 -553.452 0
1 -903.635 1066.17 0
1 -1665.97 -303.772 0
1 -30.4368 328.215 0
1 663.095 -675.169 0
1 340.508 635.107 0
1 542.651 1040.87 0
1 -231.222 976.988 0
1 1643.34 -536.859 0
1 1041.84 81.3194 0
1 295.17 279.614 0
1 -837.169 -516.532 0
1 2090.7 -1080.09 0
1 1985.99 -16.0347 0
1 -1664.24 -613.089 0
1 788.199 996.836 0
1 862.677 998.974 0
1 365.211 -315.601 0
1 997.934 947.855 0
1 1170.79 -405.897 0
1 -1491.61 -516.923 0
1 -864.887 -560.14 0
1 -1787.4 -629.018 0
1 188.506 -928.036 0
1 1472.71 -758.747 0
1 2110.94 -824.323 0
1 355.81 -27.0234 0
1 1164.76 -142.597 0
1 920.051 52.6675 0
1 1850.07 -1015.57 0
1 696.047 692.43 0
1 641.401 -57.6742 0
1 1796.07 320.307 0
1 1646.89 978.033 0
1 974.624 -8.60731 0
1 -1709.17 -358.255 0
1 1429.92 963.068 0
1 -1148.94 1064.05 0
1 -645.631 -212.449 0
1 -1746.72 -236.449 0
1 983.539 -921.837 0
1 -1419.27 419.03 0
1 2127.21 -1077.4 0
1 -156.428 -171.39 0
1 794.387 1171.17 0
1 -1526.87 1117.84 0
1 1293.62 222.278 0
1 1770.35 -420.987 0
1 -810.95 -190.252 0
1 -1417.94 1022.65 0
1 -1473.25 710.962 0
1 -705.323 51.6928 0
1 699.883 -464.146 0
1 268.026 812.665 0
1 -679.119 805.506 0
1 -1532.85 -96.8339 0
1 -1250.51 -1059.84 0
1 861.562 -809.192 0
1 1933.41 1013.2 0
1 2028.16 840.536 0
1 -1092.92 -593.724 0
1 -574.744 520.118 0
1 1922.18 -172.997 0
1 437.505 -812.47 0
1 1315.54 -824.504 0
1 1498.49 1013.88 0
1 724.12 610.923 0
1 947.5 -913.626 0
1 -1148.98 -557.981 0
1 285.994 1055.49 0
1 -53.4213 -353.936 0
1 545.769 -536.795 0
1 413.278 7.43743 0
1 -1247.37 -80.526 0
1 1773.65 1030.42 0
1 -1790.6 1170.29 0
1 447.476 844.849 0
1 1638.56 -856.549 0
1 -1553.43 -889.745 0
1 972.062 471.668 0
1 1624.45 399.124 0
1 812.33 378.184 0
1 -1261.5 -402.936 0
1 1995.82 273.426 0
1 123.601 971.652 0
1 392.334 -975.458 0
1 352.631 -115.946 0
1 -1116.93 -736.367 0
1 -1358.91 486.008 0
1 -1354.34 848.157 0
1 1639.04 -30.4137 0
1 -159.596 183.699 0
1 -24.5793 -450.1 0
1 1260.79 -968.996 0
1 924.153 100.129 0
1 1519.39 -122.447 0
1 -335.468 847.471 0
1 1634.03 471.184 0
1 1297.65 -84.7414 0
1 -993.597 226.277 0
1 -206.164 -418.205 0
1 364.55 11.9677 0
1 -186.071 -467.948 0
1 880.217 -882.85 0
1 -636.365 537.567 0
1 1577.12 330.899 0
1 75.0916 -909.685 0
1 1659.17 -908.344 0
1 1388.53 1171.44 0
1 2044.62 -326.235 0
1 986.763 664.788 0
1 -844.08 -921.77 0
1 -310.952 -110.017 0
1 -228.657 -285.007 0
1 586.891 -749.711 0
1 -1766.14 1134.71 0
1 1910.31 384.627 0
1 814.55 -1023.89 0
1 -1199.36 -742.92 0
1 -537.292 -459.072 0
1 756.609 -133.955 0
1 -341.53 -303.319 0
1 -1731.02 -245.141 0
1 -279.531 697.228 0
1 -525.351 593.665 0
1 158.324 937.307 0
1 -469.729 671.676 0
1 772.313 686.278 0
1 -714.827 212.803 0
1 692.5 314.376 0
1 1506.49 1031.97 0
1 -923.189 -742.29 0
1 1116.34 -702.062 0
1 -1878.43 47.4876 0
1 -1662.06 736.276 0
1 1943.03 188.995 0
1 1705.81 -276.686 0
1 -764.197 -784.155 0
1 -1385.25 120.342 0
1 -1901.44 -490.608 0
1 -209.092 -255.822 0
1 417.457 -24.991 0
1 -1216.42 -287.371 0
1 -1169 544.552 0
1 -942.472 -81.4553 0
1 -534.821 291.583 0
1 -389.457 416.778 0
1 518.495 -461.426 0
1 1948.11 -593.553 0
1 594.807 273.359 0
1 1116.82 -309.402 0
1 -674.281 -1000.71 0
1 393.245 169.862 0
1 459.594 -689.977 0
1 -1051.78 -1087.36 0
1 130.074 -497.546 0
1 1450.7 953.257 0
1 -30.5377 -1097.67 0
1 883.983 -760.83 0
1 -1675.26 333.501 0
1 1653.82 689.082 0
1 1228.83 711.194 0
1 1205.97 -967.549 0
1 397.269 1220.15 0
1 670.012 504.138 0
1 -524.477 -484.542 0
1 1195.75 257.283 0
1 1009.38 319.29 0
1 512.809 1170.3 0
1 -16.7342 -565.525 0
1 941.217 -897.274 0
1 -34.0008 199.667 0
1 1632.47 -153.091 0
1 2057.84 -954.198 0
1 -1582.27 116.811 0
1 -527.461 974.189 0
1 1174.06 468.127 0
1 -320.371 72.2074 0
1 -577.337 581.787 0
1 1625.67 66.2315 0
1 -492.988 1192.5 0
1 -1328.15 305.848 0
1 1315.8 977.492 0
1 -1853.67 -1040.64 0
1 1483.31 -27.637 0
1 -446.875 -176.53 0
1 545.055 1042.02 0
1 -238.041 -936.549 0
1 -1562.49 -238.41 0
1 -1083.2 -833.8 0
1 -683.373 -407.903 0
1 1490.37 -365.412 0
1 1221.37 291.526 0
1 499.252 1054.12 0
1 1761.22 -782.901 0
1 -1077.28 1062.36 0
1 1351.05 682.596 0
1 -220.217 -1067.61 0
1 -551.269 661.965 0
1 -911.647 -166.851 0
1 -681.13 -815.513 0