LAMMPS (7 Jun 2013)
Reading data file ...
  orthogonal box = (0 0 -0.5) to (213.6 123.322 0.5)
  6 by 4 by 1 MPI processor grid
  6400 atoms
Setting up run ...
Memory usage per processor = 1.62034 Mbytes
Step Temp TotEng Xlo Xhi Ylo Yhi Zlo Zhi Volume Press 
       0           50   -36332.309            0        213.6            0      123.322         -0.5          0.5    26341.579    265417.13 
  100000    50.236096   -36355.771   -1.3189119    214.91891  -0.76147403    124.08347         -0.5          0.5      26996.2    840.66819 
Loop time of 256.248 on 24 procs for 100000 steps with 6400 atoms

Pair  time (%) = 182.443 (71.1976)
Neigh time (%) = 0.00118405 (0.00046207)
Comm  time (%) = 24.177 (9.43498)
Outpt time (%) = 0.591038 (0.230651)
Other time (%) = 49.0365 (19.1363)

Nlocal:    266.667 ave 280 max 257 min
Histogram: 1 6 1 4 4 2 3 2 0 1
Nghost:    192 ave 202 max 178 min
Histogram: 1 0 3 2 1 6 2 4 4 1
Neighs:    0 ave 0 max 0 min
Histogram: 24 0 0 0 0 0 0 0 0 0
FullNghs:  4800 ave 5040 max 4626 min
Histogram: 1 6 1 4 4 2 3 2 0 1

Total # of neighbors = 115200
Ave neighs/atom = 18
Neighbor list builds = 5
Dangerous builds = 0
Setting up run ...
Memory usage per processor = 1.59576 Mbytes
Step Temp TotEng Xlo Xhi Ylo Yhi Zlo Zhi Volume Press 
  100000    50.236096   -36355.771   -1.3189119    214.91891  -0.76147403    124.08347         -0.5          0.5      26996.2    840.66819 
  125000    54.626653   -36350.845   -1.3295352    214.92954  -0.76760742    124.08961         -0.5          0.5    27001.505   -714.05456 
  150000    59.663984    -36345.56   -1.3265389    214.92654  -0.76587748    124.08788         -0.5          0.5    27000.009    393.78463 
  175000    65.973048   -36338.694   -1.3332494    214.93325  -0.76975181    124.09175         -0.5          0.5     27003.36   -201.14026 
  200000    70.765356   -36332.306   -1.3351536    214.93515  -0.77085115    124.09285         -0.5          0.5    27004.311    138.50115 
  225000    74.505736   -36328.054   -1.3364697    214.93647  -0.77161101    124.09361         -0.5          0.5    27004.969    312.49652 
  250000    80.128309   -36322.447   -1.3436757    214.94368  -0.77577143    124.09777         -0.5          0.5    27008.568   -425.70599 
  275000    86.262608   -36317.468   -1.3402355    214.94024  -0.77378522    124.09579         -0.5          0.5     27006.85    614.89726 
  300000    87.483476   -36313.069   -1.3512858    214.95129  -0.78016509    124.10217         -0.5          0.5    27012.369   -960.62947 
  325000    93.689602     -36306.6   -1.3455457    214.94555  -0.77685104    124.09885         -0.5          0.5    27009.502    759.68238 
  350000    101.88503   -36298.765   -1.3568409    214.95684  -0.78337236    124.10537         -0.5          0.5    27015.144    -617.9808 
  375000    108.02905   -36293.942   -1.3529074    214.95291  -0.78110132     124.1031         -0.5          0.5    27013.179    577.66009 
  400000    110.05658   -36289.482   -1.3606868    214.96069  -0.78559278    124.10759         -0.5          0.5    27017.065   -284.93508 
  425000    116.44694   -36283.132   -1.3616742    214.96167  -0.78616285    124.10816         -0.5          0.5    27017.559    125.56633 
  450000    121.24873   -36276.441   -1.3636022     214.9636  -0.78727596    124.10928         -0.5          0.5    27018.522    496.33454 
  475000    124.13297   -36273.263   -1.3703536    214.97035  -0.79117389    124.11317         -0.5          0.5    27021.895   -634.10455 
  500000    133.00305    -36267.09   -1.3671697    214.96717  -0.78933569    124.11134         -0.5          0.5    27020.304    589.30404 
  525000    133.33628   -36263.396   -1.3782909    214.97829  -0.79575649    124.11776         -0.5          0.5    27025.861   -969.52083 
  550000    139.82796   -36255.588   -1.3721571    214.97216  -0.79221515    124.11422         -0.5          0.5    27022.796    891.95838 
  575000    144.95149   -36250.947   -1.3840285    214.98403  -0.79906911    124.12107         -0.5          0.5    27028.728   -849.53996 
  600000    150.67697   -36245.493   -1.3794205    214.97942  -0.79640866    124.11841         -0.5          0.5    27026.425     458.9589 
  625000    158.25202   -36235.626   -1.3878656    214.98787  -0.80128445    124.12328         -0.5          0.5    27030.645   -23.422768 
  650000    158.69266   -36234.114   -1.3880276    214.98803  -0.80137797    124.12338         -0.5          0.5    27030.726    58.655817 
  675000    168.03657    -36226.76   -1.3910286    214.99103  -0.80311062    124.12511         -0.5          0.5    27032.226    194.28747 
  700000    174.31096   -36218.777   -1.3972893    214.99729  -0.80672522    124.12873         -0.5          0.5    27035.354   -163.77847 
  725000    176.99069   -36215.412   -1.3939461    214.99395  -0.80479503     124.1268         -0.5          0.5    27033.683    749.99776 
  750000    175.96935   -36211.859    -1.405569    215.00557  -0.81150554    124.13351         -0.5          0.5    27039.492   -787.06152 
  775000    187.09995    -36204.05   -1.3986751    214.99868  -0.80752535    124.12953         -0.5          0.5    27036.047    1131.0439 
  800000    192.43103   -36199.936   -1.4119191    215.01192  -0.81517176    124.13717         -0.5          0.5    27042.666   -1091.8187 
  825000    192.61309    -36192.96   -1.4057801    215.00578  -0.81162741    124.13363         -0.5          0.5    27039.598    1159.2679 
  850000    201.06835   -36187.151   -1.4156605    215.01566  -0.81733183    124.13933         -0.5          0.5    27044.536     -414.414 
  875000    202.63846   -36183.963   -1.4151158    215.01512   -0.8170174    124.13902         -0.5          0.5    27044.264    205.52738 
  900000    205.87706   -36179.878   -1.4178285    215.01783  -0.81858352    124.14058         -0.5          0.5    27045.619    367.64092 
  925000    215.64682   -36171.177   -1.4249619    215.02496  -0.82270199     124.1447         -0.5          0.5    27049.185    -469.4632 
  950000    223.57596   -36166.631   -1.4203573    215.02036  -0.82004353    124.14204         -0.5          0.5    27046.883    692.92162 
  975000     224.2702   -36161.947   -1.4341389    215.03414  -0.82800035       124.15         -0.5          0.5    27053.773    -1317.251 
 1000000    235.43405   -36153.165   -1.4245679    215.02457  -0.82247453    124.14447         -0.5          0.5    27048.988    1164.8623 
 1025000    238.17017   -36149.281    -1.440957    215.04096   -0.8319368    124.15394         -0.5          0.5    27057.181   -1316.9829 
 1050000    235.53873   -36144.173   -1.4319718    215.03197  -0.82674918    124.14875         -0.5          0.5    27052.689    1230.2706 
 1075000    244.58526   -36138.586   -1.4438577    215.04386  -0.83361151    124.15561         -0.5          0.5    27058.631   -793.53195 
 1100000    252.72302   -36133.057   -1.4424546    215.04245  -0.83280142     124.1548         -0.5          0.5     27057.93   -117.71083 
 1125000     255.2394   -36126.755   -1.4449577    215.04496  -0.83424659    124.15625         -0.5          0.5    27059.181    458.42782 
 1150000    264.88018   -36120.764    -1.454341    215.05434  -0.83966408    124.16166         -0.5          0.5    27063.873    -774.9285 
 1175000    262.36693   -36114.534    -1.445531    215.04553  -0.83457762    124.15658         -0.5          0.5    27059.468    1682.6186 
 1200000    270.90643   -36114.327   -1.4652639    215.06526  -0.84597041    124.16797         -0.5          0.5    27069.335   -2542.5839 
 1225000     273.6029   -36108.254   -1.4490279    215.04903  -0.83659652     124.1586         -0.5          0.5    27061.216    1220.7754 
 1250000    273.35502   -36101.037   -1.4724894    215.07249  -0.85014201    124.17214         -0.5          0.5    27072.948   -1542.7355 
 1275000    286.99307   -36095.904    -1.457056    215.05706  -0.84123157    124.16323         -0.5          0.5     27065.23    1265.1895 
 1300000    286.78557   -36089.169   -1.4745816    215.07458  -0.85134997    124.17335         -0.5          0.5    27073.994   -1275.3447 
 1325000    296.22592   -36079.211   -1.4700254    215.07003  -0.84871946    124.17072         -0.5          0.5    27071.716    1716.4958 
 1350000    300.49004   -36077.555    -1.472732    215.07273  -0.85028208    124.17228         -0.5          0.5    27073.069    88.384154 
 1375000    303.03126   -36072.291   -1.4847606    215.08476  -0.85722681    124.17923         -0.5          0.5    27079.085   -1525.7027 
 1400000    307.62865   -36073.071   -1.4710973     215.0711  -0.84933828    124.17134         -0.5          0.5    27072.252    554.95413 
 1425000    311.32025    -36062.04    -1.497837    215.09784  -0.86477649    124.18678         -0.5          0.5    27085.625   -2345.4273 
 1450000    312.62933   -36061.427   -1.4731839    215.07318  -0.85054299    124.17254         -0.5          0.5    27073.295      1988.96 
 1475000     326.8927   -36052.656   -1.5057023     215.1057  -0.86931749    124.19132         -0.5          0.5     27089.56   -3432.2949 
 1500000      333.356   -36040.999   -1.4820201    215.08202   -0.8556446    124.17764         -0.5          0.5    27077.714    2441.4178 
 1525000    336.23799   -36036.304   -1.5069456    215.10695   -0.8700353    124.19204         -0.5          0.5    27090.182   -1795.4572 
 1550000     339.1496   -36034.794   -1.4976276    215.09763  -0.86465556    124.18666         -0.5          0.5    27085.521    173.94113 
 1575000    345.66523   -36027.686   -1.5025312    215.10253  -0.86748666    124.18949         -0.5          0.5    27087.974   -132.77119 
 1600000    342.42541   -36025.684   -1.5161693    215.11617  -0.87536062    124.19736         -0.5          0.5    27094.796   -1953.1548 
 1625000    342.68398   -36021.486   -1.4982171    215.09822  -0.86499594      124.187         -0.5          0.5    27085.816     3160.891 
 1650000    356.80768   -36010.848   -1.5316734    215.13167  -0.88431191    124.20631         -0.5          0.5    27102.553   -3511.2655 
 1675000    364.02988   -36001.586   -1.4997215    215.09972  -0.86586447    124.18786         -0.5          0.5    27086.568    4608.6795 
 1700000    375.30447   -35999.211   -1.5403123    215.14031  -0.88929958     124.2113         -0.5          0.5    27106.876   -4387.1744 
 1725000    372.29488   -35997.528   -1.5084929    215.10849  -0.87092866    124.19293         -0.5          0.5    27090.956    3179.5724 
 1750000    383.00449     -35984.5   -1.5403246    215.14032  -0.88930667    124.21131         -0.5          0.5    27106.882   -2555.8006 
 1775000    388.21974   -35978.195   -1.5264762    215.12648  -0.88131131    124.20331         -0.5          0.5    27099.953    1033.7559 
 1800000    390.80633   -35981.086   -1.5343843    215.13438  -0.88587707    124.20788         -0.5          0.5     27103.91   -1137.0456 
 1825000    393.53055   -35968.254   -1.5476728    215.14767  -0.89354921    124.21555         -0.5          0.5    27110.559   -248.16941 
 1850000    400.69089    -35966.87   -1.5272656    215.12727  -0.88176708    124.20377         -0.5          0.5    27100.348    2672.1433 
 1875000    411.98957   -35956.287   -1.5666038     215.1666    -0.904479    124.22648         -0.5          0.5    27120.034   -4534.2099 
 1900000     411.0817   -35955.169   -1.5272435    215.12724   -0.8817543    124.20375         -0.5          0.5    27100.337    4175.6248 
 1925000    418.36586   -35942.139     -1.57624    215.17624  -0.91004247    124.23204         -0.5          0.5    27124.857   -3830.1212 
 1950000    423.43064   -35943.476   -1.5362526    215.13625   -0.8869557    124.20896         -0.5          0.5    27104.844    2943.1163 
 1975000     424.7962   -35939.345   -1.5767612    215.17676  -0.91034339    124.23234         -0.5          0.5    27125.118   -4630.3923 
 2000000    432.71432    -35930.23   -1.5548709    215.15487  -0.89770503    124.21971         -0.5          0.5    27114.162    3099.6683 
 2025000    449.61842   -35916.851   -1.5692243    215.16922  -0.90599193    124.22799         -0.5          0.5    27121.346    376.69589 
 2050000    439.48139   -35927.204   -1.5790075    215.17901  -0.91164027    124.23364         -0.5          0.5    27126.243   -2538.6238 
 2075000    443.87161   -35912.617   -1.5592344    215.15923  -0.90022426    124.22222         -0.5          0.5    27116.345    4552.2533 
 2100000     443.1339   -35910.451   -1.6014771    215.20148  -0.92461311    124.24661         -0.5          0.5    27137.492   -1430.0534 
 2125000    456.46012   -35901.823   -1.5552354    215.15524  -0.89791547    124.21992         -0.5          0.5    27114.344    6903.5779 
 2150000    460.61303    -35895.36   -1.6166962     215.2167  -0.93339985     124.2554         -0.5          0.5    27145.112   -4890.6732 
 2175000    465.06574   -35893.744   -1.5602261    215.16023  -0.90079684     124.2228         -0.5          0.5    27116.842    7380.3802 
 2200000    467.05494   -35884.187   -1.6201343    215.22013  -0.93538483    124.25738         -0.5          0.5    27146.834    -3038.408 
 2225000     477.5694   -35885.428   -1.5798358    215.17984  -0.91211849    124.23412         -0.5          0.5    27126.657    2383.3036 
 2250000     481.0136   -35876.063   -1.6102726    215.21027  -0.92969121    124.25169         -0.5          0.5    27141.896   -1479.0078 
 2275000    484.64139   -35875.524   -1.6080432    215.20804  -0.92840404     124.2504         -0.5          0.5    27140.779   -1852.6386 
 2300000    489.63046   -35872.618   -1.5950334    215.19503  -0.92089281    124.24289         -0.5          0.5    27134.265    1808.5934 
 2325000    504.02163   -35855.903    -1.638744    215.23874  -0.94612915    124.26813         -0.5          0.5    27156.154   -5588.2436 
 2350000     506.5679   -35851.091   -1.5821891    215.18219  -0.91347719    124.23548         -0.5          0.5    27127.835    8883.1282 
 2375000    503.04711    -35851.33   -1.6614557    215.26146  -0.95924177    124.28124         -0.5          0.5     27167.53   -7265.3008 
 2400000    509.92397   -35840.649   -1.5817491    215.18175  -0.91322312    124.23522         -0.5          0.5    27127.615    6254.3492 
 2425000    515.55632   -35835.199   -1.6695045     215.2695  -0.96388876    124.28589         -0.5          0.5    27171.563   -7906.8998 
 2450000    514.96291   -35825.702   -1.5992402    215.19924  -0.92332163    124.24532         -0.5          0.5    27136.372    6594.7843 
 2475000    509.36919   -35834.926   -1.6590932    215.25909  -0.95787776    124.27988         -0.5          0.5    27166.347   -5620.3906 
 2500000    538.38846   -35817.116   -1.6323138    215.23231  -0.94241667    124.26442         -0.5          0.5    27152.933    1828.4734 
 2525000    530.17029   -35823.251   -1.6372565    215.23726  -0.94527032    124.26727         -0.5          0.5    27155.409   -1617.9357 
 2550000    542.51428    -35813.61   -1.6715732    215.27157  -0.96508313    124.28708         -0.5          0.5    27172.599   -5480.7437 
 2575000    540.15837   -35813.988   -1.6158487    215.21585  -0.93291056    124.25491         -0.5          0.5    27144.688    7041.6515 
 2600000    547.75868    -35796.97   -1.7053229    215.30532  -0.98456852    124.30657         -0.5          0.5    27189.511   -10195.458 
 2625000    550.71079   -35801.301   -1.6053554    215.20536  -0.92685226    124.24885         -0.5          0.5    27139.433    8395.6833 
 2650000    553.09851   -35792.096    -1.721196     215.3212  -0.99373283    124.31573         -0.5          0.5    27197.466   -12563.852 
 2675000    553.49737   -35792.467   -1.6169635    215.21696  -0.93355417    124.25555         -0.5          0.5    27145.246    6843.3758 
 2700000    570.87853   -35773.888   -1.7155367    215.31554  -0.99046546    124.31247         -0.5          0.5     27194.63   -7121.5463 
 2725000    593.58294    -35762.54   -1.6486722    215.24867  -0.95186123    124.27386         -0.5          0.5    27161.127    3784.2169 
 2750000    590.73911   -35761.379   -1.6915773    215.29158   -0.9766325    124.29863         -0.5          0.5    27182.622   -2876.9109 
 2775000    578.78465   -35768.091   -1.6944532    215.29445  -0.97829288    124.30029         -0.5          0.5    27184.063    -2886.886 
 2800000    595.87129   -35757.449   -1.6621441    215.26214  -0.95963921    124.28164         -0.5          0.5    27167.875    1987.3909 
 2825000     584.3919   -35753.634   -1.7361087    215.33611   -1.0023427    124.32434         -0.5          0.5    27204.942   -9125.7899 
 2850000    604.67382   -35741.245    -1.644915    215.24492  -0.94969199    124.27169         -0.5          0.5    27159.245    8865.5438 
 2875000    609.40394     -35736.1   -1.7605691    215.36057   -1.0164649    124.33846         -0.5          0.5    27217.205   -13111.978 
 2900000     594.2319   -35746.252   -1.6470227    215.24702  -0.95090884    124.27291         -0.5          0.5      27160.3     10149.29 
 2925000    594.49456   -35733.131    -1.765129    215.36513   -1.0190976     124.3411         -0.5          0.5    27219.492   -11462.648 
 2950000     619.4978   -35727.268   -1.6700062    215.27001  -0.96417837    124.28618         -0.5          0.5    27171.814    4485.3344 
 2975000    624.33354   -35718.367   -1.7497043     215.3497   -1.0101921    124.33219         -0.5          0.5    27211.757   -8823.9963 
 3000000    651.16588   -35694.161   -1.7095934    215.30959  -0.98703407    124.30903         -0.5          0.5    27191.651    7849.3239 
 3025000    631.94807   -35700.142   -1.7253195    215.32532  -0.99611355    124.31811         -0.5          0.5    27199.533    2176.4812 
 3050000    634.68451    -35703.41   -1.7479046     215.3479    -1.009153    124.33115         -0.5          0.5    27210.855   -2111.8002 
 3075000    653.72715   -35696.974   -1.7085625    215.30856  -0.98643888    124.30844         -0.5          0.5    27191.134    6581.2377 
 3100000    655.80102   -35678.362    -1.775209    215.37521   -1.0249173    124.34692         -0.5          0.5    27224.546   -3241.7293 
 3125000    660.69135   -35686.669   -1.7057766    215.30578  -0.98483046    124.30683         -0.5          0.5    27189.738    6035.4559 
 3150000    668.74198   -35669.146   -1.7875662    215.38757   -1.0320517    124.35405         -0.5          0.5    27230.744   -11293.955 
 3175000    668.13848   -35659.038   -1.7183002     215.3183  -0.99206094    124.31406         -0.5          0.5    27196.015    9059.2429 
 3200000    670.44615   -35663.377   -1.7873063    215.38731   -1.0319016     124.3539         -0.5          0.5    27230.613   -2945.4633 
 3225000     693.1394   -35649.329   -1.7406602    215.34066   -1.0049705    124.32697         -0.5          0.5    27207.223    6294.8148 
 3250000    695.77035   -35644.219    -1.780693    215.38069   -1.0280834    124.35008         -0.5          0.5    27227.296   -5075.2627 
 3275000    685.88485   -35645.936   -1.7648263    215.36483   -1.0189228    124.34092         -0.5          0.5     27219.34   -572.15812 
 3300000    681.58884   -35652.039   -1.7738632    215.37386   -1.0241403    124.34614         -0.5          0.5    27223.871   -1164.6072 
 3325000    691.65092   -35639.525   -1.7886625    215.38866   -1.0326846    124.35468         -0.5          0.5    27231.293   -997.64623 
 3350000    699.05935   -35640.831   -1.7694947    215.36949   -1.0216181    124.34362         -0.5          0.5    27221.681      2596.24 
 3375000    704.29581   -35622.692    -1.808188    215.40819   -1.0439577    124.36596         -0.5          0.5    27241.087   -5951.0522 
 3400000    711.28286   -35618.097   -1.7711982     215.3712   -1.0226016     124.3446         -0.5          0.5    27222.535    4143.5236 
 3425000    729.81236   -35608.435   -1.8190811    215.41908   -1.0502468    124.37225         -0.5          0.5    27246.552   -3831.0767 
 3450000    704.56004   -35624.694   -1.7831259    215.38313   -1.0294881    124.35149         -0.5          0.5    27228.517    1883.6072 
 3475000    710.80626   -35609.968    -1.822224    215.42222   -1.0520614    124.37406         -0.5          0.5    27248.129   -94.194027 
 3500000    741.88874    -35593.73    -1.797958    215.39796   -1.0380514    124.36005         -0.5          0.5    27235.956      3548.99 
 3525000    724.67299   -35594.298    -1.823342    215.42334   -1.0527068    124.37471         -0.5          0.5     27248.69    98.134097 
 3550000    736.93433    -35589.08   -1.8172011     215.4172   -1.0491614    124.37116         -0.5          0.5    27245.609   -1428.5013 
 3575000    748.48538   -35581.535   -1.8228246    215.42282   -1.0524081    124.37441         -0.5          0.5     27248.43   -218.71449 
 3600000    755.97455   -35577.618   -1.8338875    215.43389   -1.0587953     124.3808         -0.5          0.5    27253.981   -3098.3833 
 3625000    760.23645   -35566.458   -1.8240175    215.42402   -1.0530968     124.3751         -0.5          0.5    27249.029    2603.0755 
 3650000    752.41435   -35579.579   -1.8495538    215.44955   -1.0678403    124.38984         -0.5          0.5    27261.842   -6827.7965 
 3675000    771.86482   -35562.191   -1.8276013     215.4276   -1.0551659    124.37717         -0.5          0.5    27250.827   -956.82791 
 3700000    748.92328    -35581.46   -1.8635758    215.46358   -1.0759359    124.39794         -0.5          0.5    27268.879   -10345.056 
 3725000    772.92044   -35548.856   -1.8340065    215.43401    -1.058864    124.38086         -0.5          0.5     27254.04     2778.074 
 3750000    782.06911   -35546.304   -1.8720693    215.47207   -1.0808395    124.40284         -0.5          0.5    27273.142   -6792.9471 
 3775000    773.44327   -35544.195   -1.8473928    215.44739   -1.0665926    124.38859         -0.5          0.5    27260.758    4640.1261 
 3800000    798.48089   -35520.717   -1.8757403    215.47574    -1.082959    124.40496         -0.5          0.5    27274.985    767.52395 
 3825000    798.34119   -35527.503   -1.8639877    215.46399   -1.0761736    124.39817         -0.5          0.5    27269.086   -99.249679 
 3850000    801.78352   -35523.712   -1.8735575    215.47356   -1.0816988     124.4037         -0.5          0.5    27273.889   -2750.1072 
 3875000    806.70123   -35522.074   -1.8833274    215.48333   -1.0873394    124.40934         -0.5          0.5    27278.793   -4500.8816 
 3900000    797.84105   -35514.692   -1.8711356    215.47114   -1.0803005     124.4023         -0.5          0.5    27272.674    7816.4883 
 3925000    813.31093   -35519.058   -1.9075963     215.5076   -1.1013511    124.42335         -0.5          0.5    27290.977   -9430.8381 
 3950000    812.41655   -35501.427   -1.8673462    215.46735   -1.0781127    124.40011         -0.5          0.5    27270.772    5787.1998 
 3975000    804.30492   -35496.635   -1.9303841    215.53038   -1.1145076    124.43651         -0.5          0.5     27302.42   -1737.7818 
 4000000    857.21694   -35481.866    -1.863728    215.46373   -1.0760237    124.39802         -0.5          0.5    27268.956    6969.6544 
 4025000    848.43707   -35478.945   -1.9481999     215.5482   -1.1247936    124.44679         -0.5          0.5    27311.368   -6279.3609 
 4050000    835.38686   -35483.595   -1.8700174    215.47002   -1.0796549    124.40165         -0.5          0.5    27272.112    7206.6971 
 4075000    851.62495   -35464.382   -1.9523759    215.55238   -1.1272046     124.4492         -0.5          0.5    27313.466   -5846.1966 
 4100000    842.67575   -35475.226   -1.8917395    215.49174   -1.0921962     124.4142         -0.5          0.5    27283.016    411.65502 
 4125000    836.17143   -35475.161   -1.9424922    215.54249   -1.1214983     124.4435         -0.5          0.5    27308.501   -5113.3235 
 4150000    853.21155   -35462.852   -1.9283374    215.52834    -1.113326    124.43533         -0.5          0.5    27301.392   -1975.1253 
 4175000    867.60466   -35453.333   -1.9202947    215.52029   -1.1086825    124.43068         -0.5          0.5    27297.354   -467.42363 
 4200000    869.20611   -35441.209   -1.9720924    215.57209   -1.1385879    124.46059         -0.5          0.5     27323.37   -5739.1648 
 4225000    875.70026   -35446.776   -1.8957574    215.49576   -1.0945159    124.41652         -0.5          0.5    27285.033    12403.147 
 4250000    881.45574   -35431.847   -2.0111581    215.61116   -1.1611425    124.48314         -0.5          0.5        27343   -11078.626 
 4275000    883.31101   -35429.345   -1.8798538    215.47985    -1.085334    124.40733         -0.5          0.5     27277.05    15023.659 
 4300000    886.26216   -35430.019   -2.0361389    215.63614   -1.1755652    124.49757         -0.5          0.5    27355.557   -17696.965 
 4325000     875.4711     -35429.4   -1.8851872    215.48519   -1.0884132    124.41041         -0.5          0.5    27279.727    20878.551 
 4350000    920.34129   -35400.626   -2.0409758    215.64098   -1.1783577    124.50036         -0.5          0.5    27357.988   -12084.348 
 4375000    910.32899   -35407.325   -1.9093452    215.50935   -1.1023608    124.42436         -0.5          0.5    27291.855    16943.072 
 4400000    905.47542   -35399.738   -2.0259189    215.62592   -1.1696646    124.49166         -0.5          0.5    27350.419   -9598.9772 
 4425000    917.03103   -35405.733   -1.9511805    215.55118   -1.1265144    124.44851         -0.5          0.5    27312.865    3006.9977 
 4450000    938.49134   -35377.952   -2.0002868    215.60029    -1.154866    124.47687         -0.5          0.5    27337.537   -6120.3774 
 4475000     923.4825   -35390.946   -1.9951739    215.59517    -1.151914    124.47391         -0.5          0.5    27334.968   -5309.2343 
 4500000    936.45597   -35370.109   -1.9782535    215.57825    -1.142145    124.46415         -0.5          0.5    27326.466    11809.562 
 4525000    923.53904   -35375.317    -2.032872    215.63287   -1.1736791    124.49568         -0.5          0.5    27353.914    -7721.273 
 4550000    931.95848   -35367.704   -1.9644155    215.56442   -1.1341556    124.45616         -0.5          0.5    27319.514    13319.779 
 4575000    938.15076   -35362.487   -2.0563714    215.65637   -1.1872464    124.50925         -0.5          0.5    27365.728   -5968.4013 
 4600000    966.61507   -35341.414   -1.9654558    215.56546   -1.1347562    124.45676         -0.5          0.5    27320.036    7295.1871 
 4625000    954.32019   -35345.947   -2.0680762    215.66808   -1.1940042      124.516         -0.5          0.5    27371.614   -10275.471 
 4650000    965.18491   -35342.288   -1.9788067    215.57881   -1.1424644    124.46446         -0.5          0.5    27326.744    9217.6075 
 4675000    978.33631   -35330.814   -2.0699088    215.66991   -1.1950622    124.51706         -0.5          0.5    27372.535   -7718.4131 
 4700000    958.76376   -35337.914   -1.9997468    215.59975   -1.1545542    124.47655         -0.5          0.5    27337.266    10385.373 
 4725000    966.74695   -35334.675   -2.0653456    215.66535   -1.1924276    124.51443         -0.5          0.5     27370.24   -12295.837 
 4750000    984.85931   -35326.688   -2.0267822    215.62678   -1.1701631    124.49216         -0.5          0.5    27350.853   -1338.3805 
 4775000    998.20242   -35301.122   -2.0558792    215.65588   -1.1869622    124.50896         -0.5          0.5    27365.481    2734.6611 
 4800000    1001.3859   -35307.337   -2.0553829    215.65538   -1.1866757    124.50868         -0.5          0.5    27365.231   -1192.6533 
 4825000    990.20485   -35305.449   -2.0494158    215.64942   -1.1832306    124.50523         -0.5          0.5    27362.231    7051.2644 
 4850000    1013.7023   -35296.924   -2.0796537    215.67965   -1.2006884    124.52269         -0.5          0.5    27377.435    1003.1203 
 4875000    1016.0945   -35297.097   -2.0446998     215.6447   -1.1805078    124.50251         -0.5          0.5     27359.86    1175.4845 
 4900000    994.73302   -35307.292   -2.0996459    215.69965   -1.2122309    124.53423         -0.5          0.5     27387.49   -6627.0109 
 4925000    1009.0272   -35294.018   -2.0464104    215.64641   -1.1814954     124.5035         -0.5          0.5     27360.72    2218.6619 
 4950000    1009.5719   -35285.798   -2.1128156    215.71282   -1.2198345    124.54183         -0.5          0.5    27394.115    -10194.15 
 4975000    1028.6228   -35279.334   -2.0573707    215.65737   -1.1878234    124.50982         -0.5          0.5    27366.231    1482.8752 
 5000000    1045.3615   -35246.675   -2.1214492    215.72145   -1.2248191    124.54682         -0.5          0.5    27398.458   -7013.5218 
 5025000    1043.1498   -35257.492   -2.0701217    215.67012   -1.1951852    124.51719         -0.5          0.5    27372.642    9434.7965 
 5050000    1025.7442   -35256.466   -2.1234257    215.72343   -1.2259602    124.54796         -0.5          0.5    27399.453   -6049.7113 
 5075000    1043.1044   -35244.411   -2.0893776    215.68938   -1.2063025     124.5283         -0.5          0.5    27382.326     4952.676 
 5100000    1055.2215   -35246.281   -2.1222056    215.72221   -1.2252558    124.54726         -0.5          0.5    27398.839   -3238.6293 
 5125000    1056.7808   -35240.977    -2.115147    215.71515   -1.2211805    124.54318         -0.5          0.5    27395.288   -3767.9047 
 5150000    1064.3464   -35228.164   -2.1130531    215.71305   -1.2199716    124.54197         -0.5          0.5    27394.234   -448.03277 
 5175000    1070.4505   -35217.222    -2.141483    215.74148   -1.2363856    124.55839         -0.5          0.5    27408.538    -7689.983 
 5200000    1063.3474    -35224.48   -2.1077636    215.70776   -1.2169177    124.53892         -0.5          0.5    27391.574    12216.127 
 5225000    1075.7456    -35214.38   -2.1660177    215.76602   -1.2505507    124.57255         -0.5          0.5    27420.885   -8106.7948 
 5250000    1077.0562   -35225.763   -2.1016726    215.70167   -1.2134011     124.5354         -0.5          0.5     27388.51   -63.672435 
 5275000    1068.1529   -35217.363   -2.1923354    215.79234   -1.2657453    124.58775         -0.5          0.5    27434.132   -14338.615 
 5300000    1092.9351   -35195.521   -2.1006091    215.70061   -1.2127871    124.53479         -0.5          0.5    27387.975    11575.451 
 5325000    1093.6151   -35192.013   -2.2070946    215.80709   -1.2742665    124.59627         -0.5          0.5    27441.562   -10675.156 
 5350000    1085.1222   -35202.794   -2.1057052    215.70571   -1.2157293    124.53773         -0.5          0.5    27390.538    12795.904 
 5375000    1135.8841   -35162.887   -2.2161134    215.81611   -1.2794735    124.60147         -0.5          0.5    27446.103   -9001.2159 
 5400000    1089.3018   -35191.987   -2.1252345    215.72523   -1.2270045      124.549         -0.5          0.5    27400.363    6609.1661 
 5425000    1119.4603   -35174.695   -2.2083845    215.80838   -1.2750112    124.59701         -0.5          0.5    27442.212   -3530.4743 
 5450000    1098.8779   -35177.492   -2.1589892    215.75899   -1.2464928    124.56849         -0.5          0.5    27417.347    1071.0668 
 5475000    1116.7664   -35167.993   -2.1867642    215.78676   -1.2625287    124.58453         -0.5          0.5    27431.327    -4556.473 
 5500000     1144.877   -35151.435   -2.2059459    215.80595   -1.2736033     124.5956         -0.5          0.5    27440.984    -1441.942 
 5525000    1107.5017   -35160.918    -2.159366    215.75937   -1.2467104    124.56871         -0.5          0.5    27417.537    9970.9912 
 5550000     1149.597   -35131.517   -2.2531272    215.85313   -1.3008434    124.62284         -0.5          0.5    27464.744   -5304.7022 
 5575000    1163.6457    -35146.95   -2.1348549    215.73485   -1.2325589    124.55456         -0.5          0.5    27405.203    5674.3821 
 5600000    1168.0752   -35122.827   -2.2906938    215.89069   -1.3225325    124.64453         -0.5          0.5    27483.669   -21340.119 
 5625000    1159.3644   -35126.991   -2.1265743    215.72657   -1.2277781    124.54978         -0.5          0.5    27401.037    23032.999 
 5650000    1156.3231   -35114.431   -2.3089843    215.90898   -1.3330925    124.65509         -0.5          0.5    27492.886   -11716.116 
 5675000     1151.354   -35138.066   -2.1369105    215.73691   -1.2337457    124.55575         -0.5          0.5    27406.237    18964.655 
 5700000    1160.4756   -35108.108   -2.3076557    215.90766   -1.3323255    124.65433         -0.5          0.5    27492.216   -16425.297 
 5725000    1157.6681   -35112.309    -2.168688    215.76869   -1.2520924    124.57409         -0.5          0.5    27422.229    19008.894 
 5750000    1181.3692   -35103.666   -2.2902117    215.89021   -1.3222541    124.64425         -0.5          0.5    27483.426   -21519.836 
 5775000    1181.8552   -35115.249   -2.2048151    215.80482   -1.2729504    124.59495         -0.5          0.5    27440.414    3035.2669 
 5800000    1177.9603   -35099.095    -2.272797     215.8728   -1.3121998     124.6342         -0.5          0.5    27474.652   -3401.2426 
 5825000    1206.6285    -35088.67   -2.2426573    215.84266   -1.2947986     124.6168         -0.5          0.5     27459.47   -4523.2328 
 5850000    1210.1149   -35074.889   -2.2557537    215.85575   -1.3023598    124.62436         -0.5          0.5    27466.067   -2627.6853 
 5875000    1212.8769   -35068.004    -2.274109    215.87411   -1.3129573    124.63496         -0.5          0.5    27475.313   -2351.0772 
 5900000    1205.0644   -35080.009   -2.2466815    215.84668    -1.297122    124.61912         -0.5          0.5    27461.497    -1307.126 
 5925000    1211.6387   -35065.765   -2.3009235    215.90092   -1.3284386    124.65044         -0.5          0.5    27488.824   -13993.998 
 5950000    1221.9335   -35053.631   -2.2456106    215.84561   -1.2965037     124.6185         -0.5          0.5    27460.958     10043.88 
 5975000    1202.2111   -35059.127   -2.3168856    215.91689   -1.3376544    124.65965         -0.5          0.5    27496.868   -9614.1629 
 6000000    1247.2586   -35041.847   -2.2473855    215.84739   -1.2975284    124.61953         -0.5          0.5    27461.852    3342.6712 
 6025000    1219.8251   -35042.954    -2.332489    215.93249    -1.346663    124.66866         -0.5          0.5    27504.732   -3896.6691 
 6050000    1210.1791   -35042.793   -2.2601555    215.86016   -1.3049012     124.6269         -0.5          0.5    27468.284    11003.791 
 6075000    1252.4488   -35024.185   -2.3343813    215.93438   -1.3477555    124.66976         -0.5          0.5    27505.686   -11004.455 
 6100000    1240.6745   -35025.514   -2.2799526    215.87995   -1.3163311    124.63833         -0.5          0.5    27478.257      1791.06 
 6125000    1241.4575   -35018.183   -2.3357592    215.93576    -1.348551    124.67055         -0.5          0.5    27506.381   -11993.466 
 6150000    1240.0823   -35017.717   -2.3035625    215.90356   -1.3299623    124.65196         -0.5          0.5    27490.154    -911.2365 
 6175000    1257.4892   -35011.131   -2.3301574    215.93016   -1.3453168    124.66732         -0.5          0.5    27503.557   -4765.6108 
 6200000    1250.3419   -35019.682   -2.3271093    215.92711    -1.343557    124.66556         -0.5          0.5    27502.021   -4192.5885 
 6225000    1274.0687   -34999.877   -2.3251532    215.92515   -1.3424276    124.66443         -0.5          0.5    27501.035    8462.5282 
 6250000    1289.2538   -34977.132   -2.3530351    215.95304   -1.3585253    124.68053         -0.5          0.5     27515.09    -2845.252 
 6275000    1271.0886   -34981.274    -2.321369    215.92137   -1.3402428    124.66224         -0.5          0.5    27499.127    9242.5557 
 6300000    1326.2219   -34969.616   -2.3773717    215.97737    -1.372576    124.69458         -0.5          0.5    27527.361   -9991.4387 
 6325000    1327.4987   -34955.465   -2.3156208    215.91562   -1.3369241    124.65892         -0.5          0.5     27496.23    10437.515 
 6350000    1301.9345   -34957.431   -2.3970943    215.99709   -1.3839628    124.70596         -0.5          0.5    27537.307   -9150.9216 
 6375000    1291.7586   -34975.654   -2.3199405    215.91994   -1.3394181    124.66142         -0.5          0.5    27498.408    9384.9999 
 6400000     1323.815   -34940.574   -2.4109826    216.01098   -1.3919813    124.71398         -0.5          0.5    27544.312   -6673.6981 
 6425000    1336.1356   -34948.992   -2.3272601    215.92726   -1.3436441    124.66564         -0.5          0.5    27502.097    5374.4084 
 6450000    1294.6437   -34961.607   -2.4205089    216.02051   -1.3974813    124.71948         -0.5          0.5    27549.118   -12129.265 
 6475000    1347.3966   -34939.216   -2.3425916    215.94259   -1.3524957     124.6745         -0.5          0.5    27509.825     2496.228 
 6500000    1298.2849   -34949.113   -2.4233603    216.02336   -1.3991275    124.72113         -0.5          0.5    27550.556   -4385.4012 
 6525000    1348.7131   -34912.863   -2.3613895    215.96139   -1.3633487    124.68535         -0.5          0.5    27519.302    14870.962 
 6550000    1326.0217   -34922.971   -2.4214558    216.02146    -1.398028    124.72003         -0.5          0.5    27549.595    -5719.752 
 6575000    1335.1776   -34924.503   -2.3872296    215.98723   -1.3782675    124.70027         -0.5          0.5    27532.332    4179.6411 
 6600000    1357.5281   -34897.212   -2.4075926    216.00759    -1.390024    124.71202         -0.5          0.5    27542.602   -1735.6826 
 6625000    1353.2814   -34903.716   -2.4360695    216.03607   -1.4064652    124.72847         -0.5          0.5    27556.968   -2282.8642 
 6650000    1369.2862   -34911.858   -2.3628785    215.96288   -1.3642083    124.68621         -0.5          0.5    27520.053     11778.52 
 6675000     1341.843   -34899.044   -2.5119097    216.11191   -1.4502515    124.77225         -0.5          0.5    27595.246    -14035.98 
 6700000     1383.516   -34888.353   -2.3098349    215.90983   -1.3335836    124.65558         -0.5          0.5    27493.314     22198.55 
 6725000    1384.7502   -34868.861   -2.5729326    216.17293   -1.4854831    124.80748         -0.5          0.5    27626.064    -32998.56 
 6750000     1374.194   -34878.823   -2.2899736    215.88997   -1.3221167    124.64412         -0.5          0.5    27483.306    33573.817 
 6775000      1374.63   -34847.833   -2.5858813    216.18588   -1.4929591    124.81496         -0.5          0.5    27632.606   -17156.611 
 6800000    1375.4425   -34882.557   -2.3151983     215.9152   -1.3366802    124.65868         -0.5          0.5    27496.017     33901.29 
 6825000    1424.5091   -34831.702   -2.5685708    216.16857   -1.4829648    124.80496         -0.5          0.5    27623.861   -9306.7169 
 6850000    1384.3121   -34870.685   -2.3610851    215.96109    -1.363173    124.68517         -0.5          0.5    27519.148    18645.997 
 6875000    1428.7152   -34816.451   -2.5391968     216.1392   -1.4660058    124.78801         -0.5          0.5    27609.024   -13147.351 
 6900000    1448.9194   -34812.435   -2.4057211    216.00572   -1.3889435    124.71094         -0.5          0.5    27541.658    11043.647 
 6925000    1417.8682   -34834.355   -2.5174756    216.11748    -1.453465    124.77546         -0.5          0.5    27598.056   -16459.732 
 6950000    1426.4086   -34841.421   -2.4480197    216.04802   -1.4133646    124.73536         -0.5          0.5    27562.998   -3691.4364 
 6975000    1418.9851   -34811.467   -2.4951226    216.09512   -1.4405595    124.76256         -0.5          0.5    27586.771    3892.8797 
 7000000    1449.6326   -34795.916   -2.4870394    216.08704   -1.4358927    124.75789         -0.5          0.5     27582.69   -2436.2441 
 7025000    1446.1439   -34804.624   -2.4810824    216.08108   -1.4324534    124.75445         -0.5          0.5    27579.684    9298.6774 
 7050000    1426.8716   -34821.192   -2.5193376    216.11934     -1.45454    124.77654         -0.5          0.5    27598.996   -9197.5764 
 7075000    1446.4326   -34801.332   -2.4686713    216.06867   -1.4252878    124.74729         -0.5          0.5    27573.419     6045.061 
 7100000    1426.5614   -34803.468   -2.5474724    216.14747   -1.4707837    124.79278         -0.5          0.5    27613.204   -7586.9864 
 7125000    1459.1533   -34789.551   -2.4674745    216.06747   -1.4245969     124.7466         -0.5          0.5    27572.815    8697.0317 
 7150000    1449.7182   -34779.683    -2.561842    216.16184     -1.47908    124.80108         -0.5          0.5    27620.462   -15452.578 
 7175000    1484.8435   -34765.579   -2.4736647    216.07366   -1.4281708    124.75017         -0.5          0.5     27575.94    18975.527 
 7200000    1446.6454   -34772.899   -2.5711851    216.17119   -1.4844742    124.80647         -0.5          0.5    27625.181   -8524.5188 
 7225000    1481.8151   -34755.587   -2.4876434    216.08764   -1.4362414    124.75824         -0.5          0.5    27582.995    16455.764 
 7250000    1479.6361    -34757.41   -2.5776338    216.17763   -1.4881974     124.8102         -0.5          0.5    27628.439   -11350.602 
 7275000    1515.0562     -34739.4      -2.5025     216.1025   -1.4448188    124.76682         -0.5          0.5    27590.495    9284.3316 
 7300000    1472.1023     -34755.5   -2.5808597    216.18086   -1.4900598    124.81206         -0.5          0.5    27630.069    -5302.584 
 7325000    1524.0209   -34737.508   -2.5256931    216.12569   -1.4582094    124.78021         -0.5          0.5    27602.205    594.72799 
 7350000    1499.9876   -34753.159   -2.5756543    216.17565   -1.4870545    124.80905         -0.5          0.5    27627.439   -8178.1797 
 7375000    1507.7311   -34732.615   -2.5495902    216.14959   -1.4720064    124.79401         -0.5          0.5    27614.273        12111 
 7400000    1507.6468   -34714.924   -2.5709607    216.17096   -1.4843446    124.80634         -0.5          0.5    27625.068    13023.843 
 7425000    1531.7324     -34724.6   -2.5750609    216.17506   -1.4867119    124.80871         -0.5          0.5    27627.139    932.90815 
 7450000     1501.683   -34724.987   -2.5651123    216.16511   -1.4809681    124.80297         -0.5          0.5    27622.114   -339.85392 
 7475000    1541.6338   -34700.191   -2.5975735    216.19757   -1.4997095    124.82171         -0.5          0.5    27638.513   -524.74725 
 7500000    1519.6073   -34708.222   -2.5630766    216.16308   -1.4797928    124.80179         -0.5          0.5    27621.085    10250.165 
 7525000    1536.1501   -34712.728   -2.6191402    216.21914   -1.5121611    124.83416         -0.5          0.5    27649.412   -3916.9482 
 7550000    1548.8824   -34692.557   -2.5640002      216.164    -1.480326    124.80233         -0.5          0.5    27621.552    3427.7179 
 7575000    1535.1069   -34676.545   -2.6390817    216.23908   -1.5236743    124.84567         -0.5          0.5    27659.491    1651.8033 
 7600000    1549.1317   -34688.663   -2.5625645    216.16256   -1.4794971     124.8015         -0.5          0.5    27620.827    14200.644 
 7625000    1577.9516   -34656.484   -2.6598414    216.25984     -1.53566    124.85766         -0.5          0.5    27669.986   -6492.3884 
 7650000    1572.1651    -34666.57   -2.5634666    216.16347   -1.4800179    124.80202         -0.5          0.5    27621.282    10855.958 
 7675000    1552.5328   -34662.594   -2.6760651    216.27607   -1.5450267    124.86703         -0.5          0.5    27678.188   -14529.657 
 7700000     1560.095   -34679.925   -2.5691765    216.16918   -1.4833145    124.80531         -0.5          0.5    27624.167    2841.8303 
 7725000     1552.395   -34658.868   -2.6882908    216.28829   -1.5520852    124.87409         -0.5          0.5    27684.371   -13191.559 
 7750000    1589.6113   -34632.256   -2.5796733    216.17967   -1.4893749    124.81137         -0.5          0.5    27629.469    13719.574 
 7775000    1555.8918    -34648.17   -2.6939065    216.29391   -1.5553274    124.87733         -0.5          0.5    27687.211   -6244.8281 
 7800000    1615.5187   -34647.513   -2.6064622    216.20646   -1.5048414    124.82684         -0.5          0.5    27643.005   -5476.4938 
 7825000    1581.6682   -34632.673   -2.6744724    216.27447   -1.5441071    124.86611         -0.5          0.5    27677.383    118.05818 
 7850000    1613.5816   -34617.215   -2.6539757    216.25398   -1.5322734    124.85427         -0.5          0.5     27667.02   -1281.0915 
 7875000    1619.5683   -34597.445   -2.6416682    216.24167   -1.5251676    124.84717         -0.5          0.5    27660.798    8339.6249 
 7900000    1627.0916    -34606.06   -2.7112831    216.31128   -1.5653598    124.88736         -0.5          0.5    27695.999   -12915.935 
 7925000    1615.5352   -34624.912   -2.6103656    216.21037   -1.5070951     124.8291         -0.5          0.5    27644.978    18287.138 
 7950000    1597.7558   -34621.934   -2.7527553    216.35276   -1.5893038     124.9113         -0.5          0.5     27716.98   -20927.509 
 7975000    1609.9154   -34596.168   -2.5958332    216.19583   -1.4987048     124.8207         -0.5          0.5    27637.634    20504.607 
 8000000    1647.2657   -34575.747   -2.7788307    216.37883   -1.6043584    124.92636         -0.5          0.5    27730.176   -24644.604 
 8025000    1638.3181   -34582.616   -2.6043929    216.20439   -1.5036467    124.82565         -0.5          0.5    27641.959    15456.194 
 8050000    1617.1661   -34576.629    -2.776692    216.37669   -1.6031236    124.92512         -0.5          0.5    27729.094   -13349.631 
 8075000    1657.5301   -34587.143   -2.6319199    216.23192   -1.5195394    124.84154         -0.5          0.5    27655.871    6330.1674 
 8100000    1664.5836    -34558.83   -2.7674615    216.36746   -1.5977944    124.91979         -0.5          0.5    27724.422   -1580.7792 
 8125000    1647.1528   -34544.153   -2.6617232    216.26172   -1.5367464    124.85875         -0.5          0.5    27670.937    18186.169 
 8150000    1660.0144   -34560.647   -2.7569824    216.35698   -1.5917443    124.91374         -0.5          0.5    27719.119   -6014.9983 
 8175000    1687.4143   -34558.695   -2.6908583    216.29086   -1.5535675    124.87557         -0.5          0.5    27685.669    6651.9863 
 8200000     1675.086     -34549.1   -2.7494632    216.34946   -1.5874031     124.9094         -0.5          0.5    27715.314   -8192.1949 
 8225000    1655.6461   -34561.459   -2.7195264    216.31953   -1.5701191    124.89212         -0.5          0.5    27700.169   -4137.8631 
 8250000    1662.5968   -34539.221   -2.7439192    216.34392   -1.5842022     124.9062         -0.5          0.5    27712.509    8022.6325 
 8275000    1668.6077   -34533.342   -2.7437312    216.34373   -1.5840937    124.90609         -0.5          0.5    27712.414    6295.0748 
 8300000    1688.8525   -34520.845    -2.737099     216.3371   -1.5802646    124.90226         -0.5          0.5    27709.059   -1365.7783 
 8325000    1687.3467    -34522.62   -2.7682227    216.36822   -1.5982339    124.92023         -0.5          0.5    27724.807   -5738.2372 
 8350000    1743.3889   -34500.564   -2.7352345    216.33523   -1.5791882    124.90119         -0.5          0.5    27708.115    923.04487 
 8375000    1687.4045   -34511.277   -2.7872641    216.38726   -1.6092274    124.93123         -0.5          0.5    27734.444   -8538.3924 
 8400000    1687.4408    -34529.91   -2.7355401    216.33554   -1.5793646    124.90136         -0.5          0.5     27708.27    2496.0841 
 8425000    1727.9358   -34484.418   -2.8054946    216.40549   -1.6197529    124.94175         -0.5          0.5    27743.673    5979.1746 
 8450000    1741.9944   -34481.842   -2.7387818    216.33878   -1.5812362    124.90324         -0.5          0.5     27709.91    2951.8387 
 8475000    1724.2288    -34485.26   -2.8250495    216.42505   -1.6310429    124.95304         -0.5          0.5    27753.573   -3304.6388 
 8500000    1730.5307   -34476.828   -2.7405274    216.34053    -1.582244    124.90424         -0.5          0.5    27710.793    15889.322 
 8525000    1675.1047   -34509.108   -2.8362721    216.43627   -1.6375222    124.95952         -0.5          0.5    27759.256   -17249.381 
 8550000    1684.9081   -34485.293   -2.7551013     216.3551   -1.5906582    124.91266         -0.5          0.5    27718.167    4245.3591 
 8575000    1722.9192   -34459.826   -2.8372219    216.43722   -1.6380706    124.96007         -0.5          0.5    27759.737    3523.2607 
 8600000    1742.7537    -34452.91   -2.7741266    216.37413   -1.6016425    124.92364         -0.5          0.5    27727.795    5945.6388 
 8625000    1761.5498    -34442.19   -2.8391355    216.43914   -1.6391754    124.96118         -0.5          0.5    27760.706   -4869.3345 
 8650000    1715.2887   -34474.715   -2.8000111    216.40001   -1.6165869    124.93859         -0.5          0.5    27740.897   -6850.4279 
 8675000    1755.2787    -34440.35   -2.8273325    216.42733    -1.632361    124.95436         -0.5          0.5    27754.729   -1305.0623 
 8700000     1786.563   -34417.921   -2.8332809    216.43328   -1.6357952     124.9578         -0.5          0.5    27757.741    9251.2342 
 8725000    1784.4242   -34426.076   -2.8149467    216.41495     -1.62521    124.94721         -0.5          0.5    27748.458   -2602.1998 
 8750000    1763.8667   -34415.542   -2.8719513    216.47195   -1.6581216    124.98012         -0.5          0.5    27777.326   -1170.1675 
 8775000    1747.6768   -34440.517   -2.7949684    216.39497   -1.6136755    124.93568         -0.5          0.5    27738.344     1812.203 
 8800000    1787.0741   -34396.141   -2.9093072    216.50931    -1.679689    125.00169         -0.5          0.5    27796.252   -12253.331 
 8825000    1767.6654   -34438.276   -2.7720751    216.37208   -1.6004581    124.92246         -0.5          0.5    27726.757     6407.858 
 8850000    1841.1977   -34373.941   -2.9531673    216.55317   -1.7050117    125.02701         -0.5          0.5    27818.482    -17764.14 
 8875000    1802.3731   -34409.372   -2.7538875    216.35389   -1.5899574    124.91196         -0.5          0.5    27717.553    18539.053 
 8900000    1793.5992   -34386.472   -2.9828149    216.58281   -1.7221287    125.04413         -0.5          0.5    27833.513   -13189.482 
 8925000    1784.2033   -34414.407   -2.7502957     216.3503   -1.5878837    124.90988         -0.5          0.5    27715.736    25934.075 
 8950000    1794.3665   -34368.663    -3.001693    216.60169    -1.733028    125.05503         -0.5          0.5    27843.086   -29618.744 
 8975000    1835.1087    -34366.06   -2.7622369    216.36224    -1.594778    124.91678         -0.5          0.5    27721.778    28622.688 
 9000000    1812.8825   -34369.135   -2.9984445    216.59844   -1.7311525    125.05315         -0.5          0.5    27841.439   -23946.047 
 9025000    1840.1271   -34359.009   -2.8009122    216.40091   -1.6171072    124.93911         -0.5          0.5    27741.353    11855.615 
 9050000     1872.949   -34314.037   -2.9621597    216.56216   -1.7102035     125.0322         -0.5          0.5    27823.041   -15743.453 
 9075000    1814.9574   -34344.246   -2.8695922    216.46959   -1.6567596    124.97876         -0.5          0.5    27776.132    15977.496 
 9100000    1869.0894   -34319.763    -2.914078    216.51408   -1.6824435    125.00444         -0.5          0.5     27798.67    11668.938 
 9125000    1835.3899   -34353.914   -2.9311269    216.53113   -1.6922866    125.01429         -0.5          0.5     27807.31    9365.4133 
 9150000    1876.0938   -34320.196   -2.8850895    216.48509    -1.665707    124.98771         -0.5          0.5    27783.982    7143.3636 
 9175000    1849.3208    -34314.08    -2.960666    216.56067   -1.7093411    125.03134         -0.5          0.5    27822.283    7731.9143 
 9200000    1831.8203   -34340.445   -2.8848677    216.48487   -1.6655789    124.98758         -0.5          0.5     27783.87    5658.8359 
 9225000    1900.3561    -34276.57   -2.9761442    216.57614   -1.7182774    125.04028         -0.5          0.5    27830.131   -3740.4198 
 9250000    1863.5498   -34312.135   -2.8891599    216.48916    -1.668057    124.99006         -0.5          0.5    27786.044    8817.2072 
 9275000     1838.571   -34316.547   -2.9926513    216.59265   -1.7278078    125.04981         -0.5          0.5    27838.501   -9585.4552 
 9300000    1872.0552   -34314.242   -2.8973502    216.49735   -1.6727857    124.99479         -0.5          0.5    27790.194     11589.61 
 9325000    1872.2541   -34303.275   -3.0000267    216.60003    -1.732066    125.05407         -0.5          0.5    27842.241    -18741.51 
 9350000    1963.5467   -34248.318   -2.9125636    216.51256   -1.6815691    125.00357         -0.5          0.5    27797.903    11614.618 
 9375000    1895.1004   -34270.252   -3.0034482    216.60345   -1.7340414    125.05604         -0.5          0.5    27843.977   -17584.189 
 9400000    1891.4377   -34274.695   -2.9298696    216.52987   -1.6915608    125.01356         -0.5          0.5    27806.673    2116.5957 
 9425000    1900.0737   -34268.335   -3.0006548    216.60065   -1.7324286    125.05443         -0.5          0.5     27842.56    1844.6501 
 9450000    1928.8483   -34254.454   -2.9526295    216.55263   -1.7047012     125.0267         -0.5          0.5    27818.209    17149.234 
 9475000    1952.0912   -34239.256   -3.0023766    216.60238   -1.7334227    125.05542         -0.5          0.5    27843.433   -11583.464 
 9500000    1903.8298   -34286.727    -2.973278    216.57328   -1.7166226    125.03862         -0.5          0.5    27828.678   -20978.879 
 9525000    1935.3242   -34228.035   -3.0010482    216.60105   -1.7326557    125.05466         -0.5          0.5    27842.759   -2099.1581 
 9550000    1965.8594   -34205.515   -2.9957243    216.59572    -1.729582    125.05158         -0.5          0.5    27840.059    2733.8719 
 9575000    1926.6006   -34235.129   -2.9984943    216.59849   -1.7311812    125.05318         -0.5          0.5    27841.464    -8308.334 
 9600000    1907.4848   -34262.143   -3.0163102    216.61631   -1.7414673    125.06347         -0.5          0.5      27850.5   -13141.919 
 9625000    1999.3204   -34213.349   -2.9937431    216.59374   -1.7284381    125.05044         -0.5          0.5    27839.055   -6754.7956 
 9650000    1939.2632   -34225.957   -3.0421745    216.64217      -1.7564     125.0784         -0.5          0.5     27863.62   -4022.3281 
 9675000    2019.7445   -34200.151   -2.9897792    216.58978   -1.7261496    125.04815         -0.5          0.5    27837.045   -3686.6259 
 9700000    2011.0674   -34171.323   -3.0689449    216.66894   -1.7718559    125.09386         -0.5          0.5    27877.204    574.46555 
 9725000    1987.0374    -34191.14    -2.981195    216.58119   -1.7211935    125.04319         -0.5          0.5    27832.692    12540.422 
 9750000    1968.4197   -34165.117   -3.1011495    216.70115   -1.7904493    125.11245         -0.5          0.5    27893.549    6283.2085 
 9775000    1983.8209   -34180.517   -2.9680825    216.56808    -1.713623    125.03562         -0.5          0.5    27826.043    28095.453 
 9800000    2009.5317   -34159.816   -3.1326694    216.73267   -1.8086473    125.13065         -0.5          0.5    27909.551   -15904.216 
 9825000    1981.7353   -34174.256   -2.9611026     216.5611   -1.7095931    125.03159         -0.5          0.5    27822.505    24983.593 
 9850000    1989.0077    -34154.42   -3.1525506    216.75255   -1.8201257    125.14213         -0.5          0.5    27919.647   -20760.119 
 9875000    2008.9697   -34166.255   -2.9751084    216.57511   -1.7176794    125.03968         -0.5          0.5    27829.606    20894.024 
 9900000    2011.1364    -34162.55   -3.1464183    216.74642   -1.8165852    125.13859         -0.5          0.5    27916.533   -18409.206 
 9925000    2010.5257   -34164.097   -3.0083392    216.60834   -1.7368652    125.05887         -0.5          0.5    27846.457    2489.7574 
 9950000    2039.8825   -34120.616   -3.1237242    216.72372   -1.8034828    125.12548         -0.5          0.5    27905.009    2799.0146 
 9975000    1998.8476   -34147.541   -3.0578492    216.65785   -1.7654498    125.08745         -0.5          0.5    27871.573    15882.109 
10000000      2041.33   -34136.984   -3.0945666    216.69457   -1.7866486    125.10865         -0.5          0.5    27890.207   -9487.0637 
10025000    2035.2437   -34119.079   -3.1065296    216.70653   -1.7935555    125.11556         -0.5          0.5     27896.28    -1380.432 
10050000    2034.1956   -34119.023   -3.0667324    216.66673   -1.7705785    125.09258         -0.5          0.5    27876.081    8214.2642 
10075000    2044.2652   -34113.168   -3.1475189    216.74752   -1.8172206    125.13922         -0.5          0.5    27917.091   -819.57123 
10100000    2087.0686   -34104.018   -3.0535566    216.65356   -1.7629715    125.08497         -0.5          0.5    27869.395    14366.876 
10125000    2055.6248   -34084.571   -3.1744857    216.77449   -1.8327899    125.15479         -0.5          0.5    27930.788   -11425.923 
10150000    2115.9399    -34056.26   -3.0505761    216.65058   -1.7612507    125.08325         -0.5          0.5    27867.883    15213.711 
10175000    2066.4372   -34048.358    -3.192456    216.79246   -1.8431651    125.16517         -0.5          0.5    27939.916   -2504.1147 
10200000    2062.6051   -34077.877   -3.0550306    216.65503   -1.7638225    125.08582         -0.5          0.5    27870.143    15710.098 
10225000    2057.4161    -34080.71   -3.2036284    216.80363   -1.8496155    125.17162         -0.5          0.5    27945.593    -6691.158 
10250000    2031.0343   -34110.902   -3.0728555    216.67286   -1.7741137    125.09611         -0.5          0.5    27879.188    8906.7438 
10275000    2056.0277   -34071.665   -3.2038342    216.80383   -1.8497343    125.17173         -0.5          0.5    27945.697   -24267.138 
10300000      2149.42   -34003.887   -3.0926979     216.6927   -1.7855697    125.10757         -0.5          0.5    27889.259    24718.479 
10325000    2109.5529    -34020.24   -3.2018748    216.80187    -1.848603     125.1706         -0.5          0.5    27944.702    6516.5247 
10350000    2038.3009   -34088.476   -3.1171807    216.71718   -1.7997049     125.1217         -0.5          0.5    27901.687   -8561.9603 
10375000    2089.1841   -34027.262   -3.1945121    216.79451   -1.8443522    125.16635         -0.5          0.5    27940.961   -4958.8333 
10400000    2113.7784   -34048.896     -3.14846    216.74846   -1.8177639    125.13976         -0.5          0.5    27917.569   -8135.5269 
10425000    2082.5619   -34049.677   -3.1819988      216.782   -1.8371276    125.15913         -0.5          0.5    27934.604   -4445.0808 
10450000    2146.4294   -34025.305   -3.1790634    216.77906   -1.8354329    125.15743         -0.5          0.5    27933.113   -4539.2626 
10475000    2133.7825   -34039.803   -3.1715342    216.77153   -1.8310859    125.15309         -0.5          0.5    27929.288   -10363.642 
10500000    2122.8869   -34042.218   -3.2127664    216.81277   -1.8548913    125.17689         -0.5          0.5    27950.236    -4730.896 
10525000      2141.07   -34000.781    -3.155336    216.75534   -1.8217338    125.14373         -0.5          0.5    27921.061    5952.9691 
10550000    2118.0133   -34047.789   -3.2428053    216.84281   -1.8722343    125.19423         -0.5          0.5    27965.501   -25723.394 
10575000    2115.4652    -34030.93   -3.1518162    216.75182   -1.8197017     125.1417         -0.5          0.5    27919.274     2282.883 
10600000    2126.6778   -33992.435   -3.2655187    216.86552   -1.8853478    125.20735         -0.5          0.5    27977.047   -12043.538 
10625000     2149.708   -33974.592    -3.148364    216.74836   -1.8177086    125.13971         -0.5          0.5    27917.521    16367.095 
10650000     2153.123   -33956.286   -3.2870313    216.88703   -1.8977681    125.21977         -0.5          0.5    27987.984   -22896.047 
10675000    2157.3297   -33995.606    -3.155444    216.75544   -1.8217962     125.1438         -0.5          0.5    27921.116    14985.619 
10700000    2141.5105   -33988.144   -3.2905238    216.89052   -1.8997845    125.22178         -0.5          0.5     27989.76   -20466.137 
10725000    2208.7829    -33945.65   -3.1720267    216.77203   -1.8313702    125.15337         -0.5          0.5    27929.539    1653.5204 
10750000    2211.4235   -33929.452   -3.2909881    216.89099   -1.9000526    125.22205         -0.5          0.5    27989.996   -9168.7102 
10775000    2175.1203   -33952.886   -3.1961595    216.79616   -1.8453033     125.1673         -0.5          0.5    27941.798    18342.386 
10800000     2201.151   -33928.992   -3.2889091    216.88891   -1.8988523    125.22085         -0.5          0.5    27988.939   -431.69165 
10825000    2171.5527   -33964.443    -3.222494    216.82249   -1.8605075    125.18251         -0.5          0.5    27955.179     -4325.92 
10850000    2218.2492   -33909.579   -3.2785066    216.87851   -1.8928464    125.21485         -0.5          0.5     27983.65    -1207.301 
10875000    2175.7363   -33952.538   -3.2569416    216.85694   -1.8803958     125.2024         -0.5          0.5    27972.687   -8039.4545 
10900000    2203.6464   -33922.323   -3.2608943    216.86089    -1.882678    125.20468         -0.5          0.5    27974.696   -1277.7633 
10925000    2189.9295   -33933.495   -3.2928858    216.89289   -1.9011482    125.22315         -0.5          0.5    27990.961   -3125.1181 
10950000    2208.6727   -33937.886   -3.2466612    216.84666   -1.8744604    125.19646         -0.5          0.5    27967.461   -3815.3782 
10975000    2204.9107   -33892.782    -3.324363    216.92436   -1.9193216    125.24132         -0.5          0.5     28006.97   -2899.8742 
11000000    2251.4697   -33888.154   -3.2320276    216.83203   -1.8660117    125.18801         -0.5          0.5    27960.024    6196.5623 
11025000    2203.0976   -33906.772   -3.3606423    216.96064   -1.9402674    125.26227         -0.5          0.5    28025.426   -374.45266 
11050000    2254.2458   -33874.792   -3.2151054    216.81511   -1.8562417    125.17824         -0.5          0.5    27951.424    21737.095 
11075000    2287.7223   -33843.142   -3.4004926    217.00049    -1.963275    125.28528         -0.5          0.5    28045.706   -29994.697 
11100000    2264.0425    -33897.47   -3.1989939    216.79899   -1.8469397    125.16894         -0.5          0.5    27943.238    8407.9296 
11125000     2267.102   -33827.592   -3.4339945    217.03399   -1.9826174    125.30462         -0.5          0.5    28062.761   -28072.703 
11150000    2234.9791   -33906.787   -3.1933694    216.79337   -1.8436924    125.16569         -0.5          0.5     27940.38     18975.51 
11175000    2238.7979   -33855.344   -3.4513915    217.05139   -1.9926615    125.31466         -0.5          0.5    28071.619   -22040.327 
11200000    2261.2802   -33886.212    -3.208622    216.80862   -1.8524985     125.1745         -0.5          0.5     27948.13    17641.812 
11225000    2286.1314   -33834.413   -3.4351138    217.03511   -1.9832636    125.30526         -0.5          0.5    28063.331     -24297.7 
11250000     2312.605   -33838.109    -3.267971    216.86797   -1.8867637    125.20876         -0.5          0.5    27978.294    12424.353 
11275000    2312.1294    -33819.97   -3.3823943    216.98239    -1.952826    125.27483         -0.5          0.5    28036.495   -6933.9279 
11300000    2248.9142    -33830.67   -3.3426244    216.94262   -1.9298648    125.25186         -0.5          0.5    28016.259    5696.3725 
11325000    2294.2915    -33814.15   -3.3341595    216.93416   -1.9249776    125.24698         -0.5          0.5    28011.953    1339.2977 
11350000    2309.9388   -33826.326    -3.389337    216.98934   -1.9568343    125.27883         -0.5          0.5    28040.028   -12542.745 
11375000    2329.7798   -33804.641   -3.3247064    216.92471   -1.9195199    125.24152         -0.5          0.5    28007.144    13059.682 
11400000     2351.753   -33758.517   -3.4121448    217.01214   -1.9700024      125.292         -0.5          0.5    28051.637    5055.6373 
11425000    2353.2468    -33778.37   -3.3274024     216.9274   -1.9210764    125.24308         -0.5          0.5    28008.516    14150.081 
11450000    2343.5032   -33749.282   -3.4253632    217.02536   -1.9776341    125.29963         -0.5          0.5    28058.366    14857.121 
11475000     2256.388   -33823.962   -3.3319761    216.93198    -1.923717    125.24572         -0.5          0.5    28010.842    10051.674 
11500000    2306.9077   -33806.824   -3.4371949    217.03719   -1.9844651    125.30647         -0.5          0.5     28064.39   -22697.594 
11525000    2374.7676   -33749.577   -3.3442872    216.94429   -1.9308248    125.25282         -0.5          0.5    28017.105    18776.156 
11550000    2362.2195   -33754.011    -3.441047    217.04105   -1.9866891    125.30869         -0.5          0.5    28066.352   -2697.1733 
11575000    2330.5209   -33747.244   -3.3644134    216.96441   -1.9424447    125.26444         -0.5          0.5    28027.345    17342.782 
11600000      2344.32   -33756.631   -3.4391404    217.03914   -1.9855883    125.30759         -0.5          0.5    28065.381    -14304.22 
11625000    2325.0604   -33750.014   -3.3843992     216.9844   -1.9539835    125.27598         -0.5          0.5    28037.515    25057.692 
11650000    2354.4762   -33736.052   -3.4369673    217.03697   -1.9843337    125.30633         -0.5          0.5    28064.274    789.87504 
11675000    2356.6829   -33725.197   -3.4087544    217.00875    -1.968045    125.29005         -0.5          0.5    28049.911    18329.847 
11700000    2286.3594   -33789.596   -3.4351691    217.03517   -1.9832955     125.3053         -0.5          0.5    28063.359   -4235.9268 
11725000    2421.9669   -33690.294   -3.4295385    217.02954   -1.9800447    125.30204         -0.5          0.5    28060.492    4794.3138 
11750000    2381.7964   -33716.882   -3.4329896    217.03299   -1.9820372    125.30404         -0.5          0.5    28062.249    5466.9464 
11775000    2422.2319   -33689.186   -3.4596768    217.05968    -1.997445    125.31945         -0.5          0.5    28075.838   -7677.1863 
11800000    2372.4102   -33724.164   -3.4163904    217.01639   -1.9724537    125.29445         -0.5          0.5    28053.798    7626.6091 
11825000    2375.5613   -33673.382   -3.5000106    217.10001   -2.0207318    125.34273         -0.5          0.5    28096.383   -6076.8253 
11850000    2389.3819   -33683.583   -3.3898826    216.98988   -1.9571494    125.27915         -0.5          0.5    28040.306    17978.888 
11875000    2419.2709   -33669.836   -3.5529991      217.153   -2.0513247    125.37332         -0.5          0.5    28123.384   -15069.971 
11900000    2428.2154   -33707.936   -3.3553792    216.95538   -1.9372288    125.25923         -0.5          0.5    28022.748    30002.485 
11925000    2413.9193   -33668.924   -3.6018489    217.20185   -2.0795281    125.40153         -0.5          0.5    28148.289   -27003.548 
11950000    2462.5892   -33670.195   -3.3401034     216.9401   -1.9284094    125.25041         -0.5          0.5    28014.976    29686.494 
11975000    2354.0219   -33668.519    -3.621529    217.22153   -2.0908904    125.41289         -0.5          0.5    28158.325   -23477.108 
12000000    2480.7627    -33655.43   -3.3568208    216.95682   -1.9380611    125.26006         -0.5          0.5    28023.482    19193.396 
12025000    2395.2515   -33678.545   -3.6065798    217.20658   -2.0822595    125.40426         -0.5          0.5    28150.701   -25953.026 
12050000    2455.1661    -33653.14   -3.4051177    217.00512   -1.9659453    125.28795         -0.5          0.5     28048.06    2188.0878 
12075000    2451.5036   -33649.768   -3.5759315    217.17593   -2.0645647    125.38656         -0.5          0.5    28135.074   -33923.887 
12100000    2464.4688   -33631.747   -3.4529349    217.05293   -1.9935526    125.31555         -0.5          0.5    28072.405    34342.653 
12125000    2354.7679   -33686.778   -3.5439533    217.14395   -2.0461021     125.3681         -0.5          0.5    28118.774   -25574.838 
12150000    2452.9282   -33632.441   -3.5055838    217.10558   -2.0239494    125.34595         -0.5          0.5    28099.222    4931.5872 
12175000    2431.8078   -33641.791   -3.5180134    217.11801   -2.0311257    125.35313         -0.5          0.5    28105.555   -369.65293 
12200000    2460.6244   -33620.168   -3.5489139    217.14891   -2.0489661    125.37097         -0.5          0.5    28121.302   -9776.8537 
12225000    2491.1105   -33609.314   -3.4960199    217.09602   -2.0184278    125.34043         -0.5          0.5     28094.35   -813.79411 
12250000    2526.3268   -33583.906   -3.5888921    217.18889   -2.0720476    125.39405         -0.5          0.5    28141.682   -23056.088 
12275000    2467.1957   -33629.371   -3.4764615    217.07646   -2.0071357    125.32914         -0.5          0.5    28084.387    12163.653 
12300000    2529.2835    -33551.67    -3.615914    217.21591   -2.0876486    125.40965         -0.5          0.5    28155.461   -21200.159 
12325000    2501.7732   -33593.843   -3.4783894    217.07839   -2.0082488    125.33025         -0.5          0.5    28085.369    5833.3609 
12350000    2471.2151   -33557.117   -3.6319514    217.23195   -2.0969078    125.41891         -0.5          0.5    28163.641    1436.8867 
12375000     2557.651   -33528.814   -3.4855781    217.08558   -2.0123991     125.3344         -0.5          0.5    28089.031    17178.514 
12400000    2525.6171   -33543.752   -3.6398276    217.23983   -2.1014551    125.42346         -0.5          0.5    28167.658   -12606.286 
12425000    2518.8307   -33566.442   -3.5006743    217.10067    -2.021115    125.34311         -0.5          0.5    28096.721    21358.003 
12450000    2481.8834   -33529.119    -3.640558    217.24056   -2.1018768    125.42388         -0.5          0.5    28168.031    7210.6887 
12475000    2505.2678    -33579.85    -3.525601     217.1256   -2.0355064    125.35751         -0.5          0.5    28109.421    6909.9255 
12500000    2538.7612   -33559.514   -3.6326297    217.23263   -2.0972995     125.4193         -0.5          0.5    28163.987   -27418.482 
12525000    2503.4384   -33572.441     -3.55654    217.15654    -2.053369    125.37537         -0.5          0.5    28125.189    4069.2993 
12550000    2524.4188   -33536.827   -3.6170478    217.21705   -2.0883032     125.4103         -0.5          0.5    28156.039   -1127.6972 
12575000     2600.135   -33510.613   -3.5956063    217.19561    -2.075924    125.39792         -0.5          0.5    28145.105   -8750.1907 
12600000    2515.0201   -33527.706   -3.5967678    217.19677   -2.0765945    125.39859         -0.5          0.5    28145.698    8102.8921 
12625000    2540.7317   -33491.491   -3.6305839    217.23058   -2.0961183    125.41812         -0.5          0.5    28162.943    1809.4524 
12650000    2512.7277   -33545.733   -3.5810673    217.18107   -2.0675299    125.38953         -0.5          0.5    28137.693    399.66311 
12675000    2583.5966   -33473.227   -3.6697948    217.26979   -2.1187567    125.44076         -0.5          0.5    28182.947   -8722.1177 
12700000    2591.7445   -33503.374   -3.5571441    217.15714   -2.0537178    125.37572         -0.5          0.5    28125.497     -4848.26 
12725000    2563.2774   -33498.669   -3.7179358    217.31794   -2.1465509    125.46855         -0.5          0.5    28207.515   -35229.752 
12750000    2516.0982   -33535.274   -3.5312085    217.13121   -2.0387439    125.36074         -0.5          0.5    28112.279    11566.473 
12775000    2589.4191   -33473.496    -3.758764    217.35876   -2.1701231    125.49212         -0.5          0.5     28228.36   -28028.526 
12800000     2574.642   -33505.279   -3.5147889    217.11479    -2.029264    125.35126         -0.5          0.5    28103.912    19973.875 
12825000    2566.3987   -33473.594   -3.7865502    217.38655   -2.1861655    125.50817         -0.5          0.5    28242.551   -27793.807 
12850000    2669.4072   -33438.063   -3.5224425    217.12244   -2.0336828    125.35568         -0.5          0.5    28107.812    30580.058 
12875000    2661.5922   -33413.356   -3.7815988     217.3816   -2.1833068    125.50531         -0.5          0.5    28240.022   -20408.268 
12900000    2651.4695   -33441.418   -3.5659031     217.1659   -2.0587748    125.38077         -0.5          0.5    28129.962    19033.989 
12925000    2587.4931   -33424.373   -3.7434427    217.34344   -2.1612774    125.48328         -0.5          0.5    28220.537   -14561.496 
12950000    2631.4958   -33452.986   -3.6297995     217.2298   -2.0956654    125.41767         -0.5          0.5    28162.543    19175.581 
12975000    2662.8203   -33415.028   -3.6996903    217.29969   -2.1360169    125.45802         -0.5          0.5    28198.202   -27775.191 
13000000    2626.8235   -33414.926   -3.6869585    217.28696   -2.1286662    125.45067         -0.5          0.5    28191.705      10102.8 
13025000    2708.9882   -33397.407   -3.6704643    217.27046   -2.1191432    125.44114         -0.5          0.5    28183.288   -3369.5135 
13050000    2679.3415   -33416.367   -3.7263393    217.32634   -2.1514027     125.4734         -0.5          0.5    28211.805   -10786.939 
13075000    2641.7531   -33418.827   -3.6624313    217.26243   -2.1145054    125.43651         -0.5          0.5     28179.19    11291.674 
13100000    2689.0684   -33379.896   -3.7456302    217.34563   -2.1625403    125.48454         -0.5          0.5    28221.654    3334.8885 
13125000    2661.5236   -33401.193   -3.6652901    217.26529   -2.1161559    125.43816         -0.5          0.5    28180.648    10223.624 
13150000    2684.3922   -33378.672   -3.7629424    217.36294   -2.1725355    125.49454         -0.5          0.5    28230.494    -19115.92 
13175000     2682.473   -33367.441   -3.6698181    217.26982   -2.1187702    125.44077         -0.5          0.5    28182.958    18370.383 
13200000    2648.6518   -33396.217   -3.7730095    217.37301   -2.1783477    125.50035         -0.5          0.5    28235.635   -15816.304 
13225000    2718.3256   -33346.289   -3.6858528    217.28585   -2.1280278    125.45003         -0.5          0.5    28191.141    11474.584 
13250000    2657.5203   -33366.278    -3.773092    217.37309   -2.1783954     125.5004         -0.5          0.5    28235.677   -9075.8542 
13275000    2727.1559   -33355.431   -3.7002498    217.30025   -2.1363399    125.45834         -0.5          0.5    28198.488    3750.5223 
13300000    2675.5259   -33369.213    -3.775917    217.37592   -2.1800264    125.50203         -0.5          0.5     28237.12   -14870.335 
13325000      2708.29   -33330.355    -3.719981    217.31998   -2.1477317    125.46973         -0.5          0.5    28208.559    2111.1153 
13350000    2704.8623   -33328.733    -3.773272    217.37327   -2.1784993     125.5005         -0.5          0.5    28235.769   -838.74709 
13375000    2760.0568   -33289.609    -3.744194    217.34419   -2.1617111    125.48371         -0.5          0.5    28220.921    3480.7887 
13400000    2737.7483   -33265.624   -3.7703322    217.37033    -2.176802     125.4988         -0.5          0.5    28234.268   -3107.0881 
13425000    2758.2169   -33300.696   -3.7709835    217.37098    -2.177178    125.49918         -0.5          0.5    28234.601   -13881.668 
13450000    2701.2664   -33298.467   -3.7575238    217.35752    -2.169407    125.49141         -0.5          0.5    28227.727    5761.0215 
13475000    2757.2861   -33306.525   -3.8065809    217.40658   -2.1977302    125.51973         -0.5          0.5    28252.783   -18568.336 
13500000     2746.433   -33298.776   -3.7374897    217.33749   -2.1578404    125.47984         -0.5          0.5    28217.498     8048.201 
13525000    2818.1911   -33196.163   -3.8581097    217.45811   -2.2274803    125.54948         -0.5          0.5    28279.114    5780.2811 
13550000    2766.3642   -33302.752   -3.6905484    217.29055   -2.1307388    125.45274         -0.5          0.5    28193.537    10929.258 
13575000    2769.2137   -33246.916   -3.9388497    217.53885   -2.2740956     125.5961         -0.5          0.5    28320.396   -24984.637 
13600000    2874.4608   -33224.312   -3.6337635    217.23376   -2.0979541    125.41995         -0.5          0.5    28164.565    40456.415 
13625000    2765.2448   -33217.502   -3.9934172    217.59342   -2.3056002     125.6276         -0.5          0.5    28348.313   -21903.982 
13650000    2772.4622    -33284.92   -3.6328616    217.23286   -2.0974333    125.41943         -0.5          0.5    28164.105    36692.817 
13675000    2802.7785   -33202.297   -3.9812251    217.58123    -2.298561    125.62056         -0.5          0.5    28342.074   -17224.218 
13700000     2737.098   -33288.607   -3.6871051    217.28711   -2.1287508    125.45075         -0.5          0.5     28191.78    44077.174 
13725000    2812.7474   -33235.574   -3.9320466    217.53205   -2.2701678    125.59217         -0.5          0.5    28316.916   -16452.334 
13750000     2758.703   -33281.901   -3.7544204    217.35442   -2.1676153    125.48962         -0.5          0.5    28226.142    15720.538 
13775000    2745.0699   -33271.593    -3.882995    217.48299   -2.2418479    125.56385         -0.5          0.5    28291.834   -33027.317 
13800000    2708.6375   -33277.829   -3.8225659    217.42257   -2.2069592    125.52896         -0.5          0.5     28260.95   -1320.7557 
13825000    2828.8508   -33216.764   -3.8447033     217.4447   -2.2197402    125.54174         -0.5          0.5    28272.262    675.51405 
13850000    2870.7857   -33204.817   -3.8703853    217.47039   -2.2345677    125.55657         -0.5          0.5    28285.388    9274.2824 
13875000    2815.1643   -33207.762   -3.8248391    217.42484   -2.2082716    125.53027         -0.5          0.5    28262.112    11175.381 
13900000    2779.7316   -33255.138   -3.8998531    217.49985   -2.2515809    125.57358         -0.5          0.5    28300.453   -31887.383 
13925000    2886.7346   -33164.785   -3.8165863    217.41659   -2.2035068    125.52551         -0.5          0.5    28257.895    13104.013 
13950000    2889.4682   -33137.864   -3.9239744    217.52397   -2.2655074    125.58751         -0.5          0.5    28312.788   -3702.2113 
13975000    2824.1808   -33200.845   -3.8196532    217.41965   -2.2052775    125.52728         -0.5          0.5    28259.462    9387.5156 
14000000    2791.5267   -33177.748   -3.9322929    217.53229   -2.2703101    125.59231         -0.5          0.5    28317.042    1675.4608 
14025000    2810.9349   -33229.712    -3.832954    217.43295   -2.2129567    125.53496         -0.5          0.5    28266.258    1349.5883 
14050000    2778.3472   -33174.957   -3.9377576    217.53776   -2.2734651    125.59547         -0.5          0.5    28319.837   -4321.7256 
14075000    2819.3057   -33184.685   -3.8519061    217.45191   -2.2238987     125.5459         -0.5          0.5    28275.943    7575.5653 
14100000    2811.3475   -33163.734   -3.9369691    217.53697   -2.2730099    125.59501         -0.5          0.5    28319.434   -6317.0535 
14125000    2847.0415   -33159.876    -3.871515    217.47151   -2.2352199    125.55722         -0.5          0.5    28285.966    4363.7397 
[...]
36625000     7377.048   -14545.773   -260.12862    473.72862   -150.18531    273.50731         -0.5          0.5    310929.89    4040.3392 
36650000    7286.3473   -14239.529   -263.66139    477.26139   -152.22495    275.54695         -0.5          0.5    316945.95    4714.7307 
36675000    7214.7428   -14329.625   -267.22867    480.82867   -154.28452    277.60652         -0.5          0.5    323079.27    3358.8055 
36700000    7365.6805   -14111.418   -270.86487    484.46487   -156.38388    279.70588         -0.5          0.5    329391.57    3469.6014 
36725000    7354.9659   -14060.419   -274.57348    488.17348   -158.52505    281.84705         -0.5          0.5    335892.48    4405.9793 
36750000    7333.1228   -14106.016   -278.34357    491.94357   -160.70171    284.02371         -0.5          0.5    342566.28    5344.1007 
36775000     7249.022   -14033.222   -282.17003    495.77003   -162.91092    286.23292         -0.5          0.5    349406.99    3509.1029 
36800000    7335.6134   -13929.119   -286.05086    499.65086   -165.15152    288.47352         -0.5          0.5    356413.96     5868.934 
36825000    7351.2876   -13671.363   -289.96015    503.56015   -167.40855    290.73055         -0.5          0.5    363542.68    5112.6646 
36850000    7401.0567   -13373.779     -294.006      507.606   -169.74442    293.06642         -0.5          0.5    370994.72    6160.2056 
36875000    7419.0857   -13507.474   -298.08351    511.68351   -172.09857    295.42057         -0.5          0.5    378581.57    6223.1404 
36900000    7462.2534   -13318.524   -302.19847    515.79847   -174.47435    297.79635         -0.5          0.5    386315.99    5131.0246 
36925000    7516.2682   -13093.763   -306.38478    519.98478   -176.89131    300.21331         -0.5          0.5    394264.74    6149.5185 
36950000    7543.0886   -13174.616   -310.65957    524.25957   -179.35936    302.68136         -0.5          0.5    402465.02    2885.9633 
36975000    7395.8566   -12871.076   -314.98729    528.58729   -181.85797    305.17997         -0.5          0.5    410852.82    3036.2257 
37000000    7462.2885   -12889.102   -319.39208    532.99208   -184.40108    307.72308         -0.5          0.5    419478.83    5347.3044 
37025000     7364.065   -12648.371    -323.8655     537.4655    -186.9838     310.3058         -0.5          0.5    428330.95    4996.7279 
37050000    7363.7509   -12557.869   -328.44523    542.04523   -189.62791    312.94991         -0.5          0.5     437489.2    4384.9153 
37075000    7399.1199    -12528.26   -333.06904    546.66904   -192.29747    315.61947         -0.5          0.5    446833.88    3063.4017 
37100000    7545.0368    -12401.38   -337.75825    551.35825   -195.00479    318.32679         -0.5          0.5    456411.58    4749.0503 
37125000     7300.064   -12652.461    -342.5132     556.1132   -197.75006    321.07206         -0.5          0.5    466227.26    4693.9098 
37150000    7398.5193    -12207.73   -347.37737    560.97737   -200.55839    323.88039         -0.5          0.5    476376.45    4140.9041 
37175000    7473.9831   -12005.626   -352.31056    565.91056   -203.40657    326.72857         -0.5          0.5    486781.28    4627.4286 
37200000    7468.0203   -11997.257   -357.32131    570.92131   -206.29952    329.62152         -0.5          0.5    497464.76    3704.4751 
37225000    7541.1997   -11711.442    -362.4229     576.0229   -209.24493    332.56693         -0.5          0.5    508461.07    4866.8414 
37250000    7288.2083   -11942.985    -367.6046     581.2046   -212.23658    335.55858         -0.5          0.5    519753.09    4958.6208 
37275000    7587.3363   -11385.652    -372.9174     586.5174   -215.30393    338.62593         -0.5          0.5    531459.59     5098.215 
37300000    7634.7709   -11395.922   -378.29018    591.89018   -218.40591    341.72791         -0.5          0.5    543430.83    4252.8581 
37325000     7575.139   -11420.804   -383.75048    597.35048   -221.55841    344.88041         -0.5          0.5    555733.68    5143.7477 
37350000    7523.4528   -11166.186   -389.32226    602.92226   -224.77528    348.09728         -0.5          0.5    568429.67    4198.7701 
37375000      7405.66   -11161.182   -395.01898    608.61898   -228.06428    351.38628         -0.5          0.5    581558.58    3613.4658 
37400000    7458.1862   -11137.079   -400.78341    614.38341   -231.39238    354.71438         -0.5          0.5    594996.14    4362.8107 
37425000    7625.8607   -10970.767   -406.62313    620.22313   -234.76394    358.08594         -0.5          0.5    608765.67    3804.9347 
37450000     7580.727   -10855.369   -412.56203    626.16203   -238.19276    361.51476         -0.5          0.5    622930.63    3275.9387 
37475000    7464.7423   -10626.066   -418.56503    632.16503    -241.6586     364.9806         -0.5          0.5    637414.04    2564.6791 
37500000    7549.4979   -10525.073   -424.66891    638.26891   -245.18268    368.50468         -0.5          0.5     652311.5    4851.2003 
37525000    7579.0246   -10339.759   -430.90142    644.50142   -248.78102    372.10302         -0.5          0.5    667700.45    4376.4535 
37550000    7604.8905   -10039.149   -437.30282    650.90282   -252.47687    375.79887         -0.5          0.5     683693.2    4278.0066 
37575000     7526.946   -10187.511    -443.7994     657.3994   -256.22767    379.54967         -0.5          0.5    700117.24    4369.4832 
37600000    7764.8477   -9741.5253   -450.39727    663.99727   -260.03695    383.35895         -0.5          0.5    716996.89    3631.0947 
37625000    7444.4672   -9963.7454    -457.1091     670.7091   -263.91203    387.23403         -0.5          0.5    734374.37    2413.0955 
37650000    7804.7045   -9840.3401   -463.94498    677.54498   -267.85872    391.18072         -0.5          0.5     752286.9    3353.3108 
37675000    7487.9965     -10004.8   -470.79944    684.39944   -271.81614    395.13814         -0.5          0.5    770464.84     3250.325 
37700000    7621.5711   -9603.8897   -477.79756    691.39756   -275.85651    399.17851         -0.5          0.5    789247.65    2891.8089 
37725000    7783.0638   -9395.8019   -484.99129    698.59129   -280.00981    403.33181         -0.5          0.5    808791.25     3632.521 
37750000    7558.1035    -9298.928   -492.30964    705.90964   -284.23507    407.55707         -0.5          0.5    828918.68    3369.7738 
37775000    7578.5826   -9263.3023   -499.69983    713.29983   -288.50179    411.82379         -0.5          0.5    849494.69     3051.341 
37800000    7487.1398   -9400.7157   -507.26855    720.86855   -292.87159    416.19359         -0.5          0.5    870829.25    2880.8465 
37825000    7662.2859   -9105.8288   -514.89435    728.49435   -297.27435    420.59635         -0.5          0.5    892592.32     3146.696 
37850000    7668.6492    -9066.874   -522.59087    736.19087   -301.71793    425.03993         -0.5          0.5    914829.53    2813.0796 
37875000    7594.0566   -8724.2791   -530.48804    744.08804   -306.27737    429.59937         -0.5          0.5    937930.88    3335.6997 
37900000    7682.1935   -8564.7111   -538.59994    752.19994   -310.96078    434.28278         -0.5          0.5    961960.29    3276.5454 
37925000    7446.8937    -8813.206   -546.80686    760.40686   -315.69904    439.02104         -0.5          0.5    986580.44    3421.7381 
37950000    7644.9489   -8381.0143   -555.09847    768.69847   -320.48621    443.80821         -0.5          0.5    1011770.6    2218.6518 
37975000    7531.7386   -8454.1523   -563.57379    777.17379   -325.37943    448.70143         -0.5          0.5    1037847.1    3341.4317 
38000000    7670.0465   -8413.4828   -572.18165    785.78165   -330.34918    453.67118         -0.5          0.5    1064670.9    3114.1122 
38025000    7648.0363   -8284.8643   -580.91481    794.51481   -335.39128    458.71328         -0.5          0.5    1092234.9    2737.5547 
38050000    7602.1891   -8054.5434   -589.83247    803.43247   -340.53989    463.86189         -0.5          0.5    1120744.8    2239.0683 
38075000    7622.1574   -7630.0774   -598.91506    812.51506   -345.78372    469.10572         -0.5          0.5    1150159.5    3085.1975 
38100000     7633.675   -7767.1952   -608.20645    821.80645   -351.14811    474.47011         -0.5          0.5    1180644.7    2877.7268 
38125000    7496.5266   -7799.4837   -617.60842    831.20842   -356.57634    479.89834         -0.5          0.5    1211898.6    2407.1984 
38150000    7612.1215   -7495.2972   -627.17384    840.77384   -362.09894    485.42094         -0.5          0.5    1244114.8    2264.7414 
38175000    7728.3672   -7304.6117    -636.9266     850.5266   -367.72969    491.05169         -0.5          0.5    1277397.1    2755.8907 
38200000    7745.0693   -7142.4233    -646.8253     860.4253   -373.44471    496.76671         -0.5          0.5    1311626.7    2561.6049 
38225000     7834.843     -7158.23   -656.94596    870.54596   -379.28787    502.60987         -0.5          0.5    1347091.7    2394.7108 
38250000     7609.772    -7106.591   -667.23296    880.83296   -385.22707    508.54907         -0.5          0.5    1383624.4    2584.8811 
38275000    7756.5277   -6758.4242   -677.68819    891.28819   -391.26341    514.58541         -0.5          0.5    1421255.4    2506.0099 
38300000    7764.9816   -6781.1505   -688.35697    901.95697   -397.42303    520.74503         -0.5          0.5    1460175.5    2484.5251 
38325000    7728.0567   -6773.3448   -699.17365    912.77365   -403.66804    526.99004         -0.5          0.5    1500171.8    2250.5356 
38350000    7645.8976   -6549.6917    -710.1963     923.7963   -410.03197    533.35397         -0.5          0.5    1541485.6    2493.2159 
38375000    7802.1332   -6313.6059   -721.40033    935.00033   -416.50062    539.82262         -0.5          0.5    1584054.4    2555.8114 
38400000    7868.0364   -6049.6393    -732.9403     946.5403   -423.16322    546.48522         -0.5          0.5    1628505.8    2373.3768 
38425000    7720.7686   -6032.5971   -744.59195    958.19195    -429.8903     553.2123         -0.5          0.5    1674011.3    2168.5041 
38450000    7568.5216   -6054.2968   -756.48903    970.08903   -436.75908    560.08108         -0.5          0.5    1721122.4    2230.7494 
38475000    7882.4698    -5790.799    -768.6205     982.2205   -443.76319    567.08519         -0.5          0.5    1769834.8    2482.5855 
38500000    7518.9004   -5933.7336   -780.84995    994.44995   -450.82387    574.14587         -0.5          0.5    1819628.7    2408.2216 
38525000    7782.1738   -5661.1733   -793.37863    1006.9786    -458.0573     581.3793         -0.5          0.5    1871357.2     2179.439 
38550000    7749.3889   -5604.8765   -806.10944    1019.7094   -465.40743    588.72943         -0.5          0.5      1924663    1969.9536 
38575000    7751.9659   -5376.1032   -819.02483    1032.6248   -472.86414    596.18614         -0.5          0.5    1979506.6    1927.8414 
38600000    7714.6201   -5185.8831   -832.30333    1045.9033   -480.53049    603.85249         -0.5          0.5    2036695.3    1960.9766 
38625000     7818.404   -5043.9902    -845.8135    1059.4135   -488.33058    611.65258         -0.5          0.5    2095717.6    2068.4725 
38650000    7628.7003   -5299.7284   -859.54727    1073.1473   -496.25978    619.58178         -0.5          0.5    2156580.9    1883.7387 
38675000    7786.4058   -4969.4241   -873.37221    1086.9722   -504.24161    627.56361         -0.5          0.5    2218728.1    1884.0288 
38700000    7687.4338   -4938.4119   -887.46618    1101.0662   -512.37876    635.70076         -0.5          0.5    2282993.3    1612.2402 
38725000    7751.3081   -4659.3524   -901.85014    1115.4501   -520.68335    644.00535         -0.5          0.5    2349526.8    1911.9925 
38750000    7779.9192   -4453.9933   -916.55379    1130.1538    -529.1725     652.4945         -0.5          0.5    2418526.8    1843.6375 
38775000    7744.1178   -4270.6995   -931.65963    1145.2596   -537.89386    661.21586         -0.5          0.5    2490454.1    1766.3994 
38800000    7744.1643   -4144.9593   -947.01929    1160.6193   -546.76176    670.08376         -0.5          0.5    2564670.6    1784.2446 
38825000    7966.1578   -3869.0203   -962.65276    1176.2528   -555.78775    679.10975         -0.5          0.5    2641329.1    1749.4799 
38850000    7706.7704   -3965.4627   -978.49736    1192.0974   -564.93563    688.25763         -0.5          0.5    2720174.7    1534.0168 
38875000    7707.7059   -3802.4726   -994.53699     1208.137   -574.19612    697.51812         -0.5          0.5    2801171.9    1587.3995 
38900000    7683.2944   -3903.0151   -1011.0229    1224.6229   -583.71427    707.03627         -0.5          0.5      2885661    1681.0557 
38925000    7811.7514   -3600.2745    -1027.655     1241.255   -593.31678    716.63878         -0.5          0.5    2972171.2    1595.9597 
38950000    7716.4496   -3499.6232   -1044.6549    1258.2549   -603.13173    726.45373         -0.5          0.5    3061915.5     1381.537 
38975000    7812.8638   -3295.7572   -1061.9759    1275.5759   -613.13196    736.45396         -0.5          0.5    3154726.9     1500.567 
39000000    7760.5639   -3225.9144   -1079.6057    1293.2057   -623.31058    746.63258         -0.5          0.5    3250616.9    1609.8299 
39025000    7820.0224   -3018.9785   -1097.5225    1311.1225   -633.65481    756.97681         -0.5          0.5    3349537.9    1418.2121 
39050000    7819.8924   -2884.1542   -1115.8166    1329.4166    -644.2169     767.5389         -0.5          0.5      3452072    1431.2987 
39075000     7752.797   -2877.1635   -1134.4507    1348.0507   -654.97533    778.29733         -0.5          0.5    3558101.4    1210.0228 
39100000    7912.2019     -2756.37   -1153.3557    1366.9557   -665.89014    789.21214         -0.5          0.5    3667310.9    1328.8221 
39125000    7887.4512   -2690.9725   -1172.6202    1386.2202   -677.01251    800.33451         -0.5          0.5    3780295.3    1327.0437 
39150000     7726.801   -2656.5586   -1192.2539    1405.8539   -688.34802    811.67002         -0.5          0.5    3897208.6    1283.2575 
39175000    7767.8332   -2433.7581   -1212.3308    1425.9308    -699.9394     823.2614         -0.5          0.5    4018602.1    1280.6231 
39200000    7809.1934   -2180.9759   -1232.7852    1446.3852   -711.74879    835.07079         -0.5          0.5    4144193.3    1172.2076 
39225000    8046.9378   -1998.3777   -1253.6614    1467.2614   -723.80166    847.12366         -0.5          0.5    4274366.6     1199.223 
39250000    7975.8182   -1896.5513   -1274.7625    1488.3625   -735.98439    859.30639         -0.5          0.5    4407987.9    1256.0553 
39275000    7963.9713   -1917.0757   -1296.3197    1509.9197    -748.4304     871.7524         -0.5          0.5    4546620.6     1072.033 
39300000     7982.942   -1761.5963    -1318.256     1531.856   -761.09538    884.41738         -0.5          0.5    4689895.8    1130.2761 
39325000    7964.6586   -1665.0952   -1340.4938    1554.0938   -773.93437    897.25637         -0.5          0.5    4837408.1    1121.8126 
39350000    7991.1731   -1506.9866   -1363.1689    1576.7689   -787.02583    910.34783         -0.5          0.5      4990173    1012.1628 
39375000    7861.3737   -1526.6916   -1386.3978    1599.9978   -800.43703    923.75904         -0.5          0.5    5149131.6    973.28928 
39400000    8014.7131   -1341.3088   -1409.8815    1623.4815   -813.99536    937.31736         -0.5          0.5    5312367.3    1068.5267 
39425000    7912.8374   -1316.4437   -1433.8221    1647.4221   -827.81747    951.13947         -0.5          0.5    5481400.8    992.68695 
39450000    7919.8648   -1192.7277   -1458.2425    1671.8425   -841.91657    965.23857         -0.5          0.5    5656549.2    960.23236 
39475000    7963.6707   -1124.9479   -1483.0765    1696.6765   -856.25449    979.57649         -0.5          0.5    5837489.1    929.49162 
39500000    7989.3333   -1021.8245   -1508.3009    1721.9009   -870.81778    994.13978         -0.5          0.5    6024189.1    894.78124 
39525000    7997.2144   -1036.7961   -1533.9708    1747.5708   -885.63832    1008.9603         -0.5          0.5    6217204.3    840.90807 
39550000    8128.7384   -835.60614    -1560.084     1773.684   -900.71477    1024.0368         -0.5          0.5      6416675    944.26657 
39575000    7926.5891   -793.33896   -1586.7805    1800.3805     -916.128      1039.45         -0.5          0.5    6623857.5    819.59648 
39600000    7890.7359   -735.23798   -1613.7827    1827.3827   -931.71775    1055.0397         -0.5          0.5    6836761.2    815.51543 
39625000    7797.4348   -657.63679   -1641.4713    1855.0713   -947.70378    1071.0258         -0.5          0.5      7058574    737.72834 
39650000    7824.8498   -586.38966   -1669.5539    1883.1539   -963.91727    1087.2393         -0.5          0.5    7287159.9    746.63541 
39675000    8019.5506   -422.45818   -1697.9773    1911.5773   -980.32753    1103.6495         -0.5          0.5    7522229.2    751.09534 
39700000    8090.9737   -315.81084   -1727.0031    1940.6031   -997.08556    1120.4076         -0.5          0.5    7766130.9     767.1845 
39725000    7905.9677   -363.41406   -1756.6052    1970.2052   -1014.1763    1137.4983         -0.5          0.5    8018883.3    696.95058 
39750000    7965.1189   -238.91559   -1786.8133    2000.4133    -1031.617     1154.939         -0.5          0.5    8280983.2    667.84147 
39775000    8034.1263    -77.04865    -1817.412     2031.012   -1049.2831    1172.6051         -0.5          0.5    8550767.9    740.18628 
39800000     8058.409   -7.1408463   -1848.5289    2062.1289   -1067.2485    1190.5705         -0.5          0.5    8829557.4    661.89766 
39825000    7847.0022   -17.708998   -1880.1931    2093.7931   -1085.5298    1208.8518         -0.5          0.5    9117841.1    658.58559 
39850000    7949.9738    36.172497   -1912.3865    2125.9865   -1104.1167    1227.4387         -0.5          0.5    9415690.7     600.4394 
Loop time of 103190 on 24 procs for 39750000 steps with 6400 atoms

Pair  time (%) = 69221 (67.0815)
Neigh time (%) = 223.34 (0.216437)
Comm  time (%) = 13350.3 (12.9376)
Outpt time (%) = 44.2674 (0.0428992)
Other time (%) = 20350.6 (19.7216)

Nlocal:    266.667 ave 290 max 244 min
Histogram: 2 2 2 5 1 4 1 2 3 2
Nghost:    8.95833 ave 18 max 4 min
Histogram: 2 2 8 5 3 0 1 1 0 2
Neighs:    0 ave 0 max 0 min
Histogram: 24 0 0 0 0 0 0 0 0 0
FullNghs:  112.833 ave 179 max 76 min
Histogram: 1 7 3 3 4 3 2 0 0 1

Total # of neighbors = 2708
Ave neighs/atom = 0.423125
Neighbor list builds = 1144540
Dangerous builds = 59765
Setting up run ...
Memory usage per processor = 2.38295 Mbytes
Step Temp TotEng Xlo Xhi Ylo Yhi Zlo Zhi Volume Press 
39850000    7949.9738    36.172497   -1912.3865    2125.9865   -1104.1167    1227.4387         -0.5          0.5    9415690.7     600.4394 
39900000    8020.8084    217.72162   -1914.4606    2128.0606   -1105.3142    1228.6362         -0.5          0.5    9435043.8    602.69241 
39950000    7965.5326    316.88794   -1920.5705    2134.1705   -1108.8417    1232.1637         -0.5          0.5      9492171    612.96145 
Loop time of 57.2058 on 24 procs for 100000 steps with 6400 atoms

Pair  time (%) = 4.22714 (7.38937)
Neigh time (%) = 1.58667 (2.77362)
Comm  time (%) = 13.4197 (23.4586)
Outpt time (%) = 0.681565 (1.19143)
Other time (%) = 37.2907 (65.187)

Nlocal:    266.667 ave 312 max 230 min
Histogram: 1 2 3 5 4 5 1 1 0 2
Nghost:    8.04167 ave 14 max 3 min
Histogram: 5 2 0 6 0 2 2 3 1 3
Neighs:    0 ave 0 max 0 min
Histogram: 24 0 0 0 0 0 0 0 0 0
FullNghs:  105.5 ave 145 max 81 min
Histogram: 5 3 2 2 3 4 2 2 0 1

Total # of neighbors = 2532
Ave neighs/atom = 0.395625
Neighbor list builds = 9186
Dangerous builds = 2712
