6400
Atoms. Timestep: 39900000
1 1683.57 -1033.54 0
1 -1160.7 -39.8631 0
1 1555.06 208.887 0
1 2112.87 1057.93 0
1 -1664.8 54.678 0
1 1856.83 1020.69 0
1 835.582 -508.353 0
1 1681.22 -478.661 0
1 -1580.46 1328.95 0
1 2007.26 193.722 0
1 2329.35 281.579 0
1 1065.26 1303.89 0
1 1982.28 -342.249 0
1 -1993.77 -774.081 0
1 2303.85 595.2 0
1 -1695.74 602.956 0
1 -1314.76 -707.207 0
1 1909.09 -201.191 0
1 1605.87 922.694 0
1 -1735.36 -563.849 0
1 -259.571 -1105.97 0
1 -1901.04 246.578 0
1 487.311 -234.514 0
1 -603.201 941.834 0
1 2045.34 1239.9 0
1 -1794.55 -518.561 0
1 1094.02 -491.808 0
1 237.561 -25.3933 0
1 -1275.66 96.9472 0
1 766.305 1203.59 0
1 530.918 -216.116 0
1 707.102 509.951 0
1 -1202.97 571.692 0
1 650.696 -523.411 0
1 -986.786 -22.6639 0
1 -599.716 -643.971 0
1 -1194.25 164.18 0
1 -1767.62 695.621 0
1 -1988.94 392.159 0
1 -2107.29 913.338 0
1 -1773.46 995.506 0
1 -964.688 741.245 0
1 1331.18 -1114.96 0
1 1990.89 1271.78 0
1 607.7 -564.394 0
1 2296.68 1125.14 0
1 -1317.91 -1184.4 0
1 -1274.25 973.856 0
1 207.396 36.462 0
1 1285.28 -950.491 0
1 -1045.72 -911.391 0
1 -607.359 1339.45 0
1 -82.1081 -1221.88 0
1 829.231 374.049 0
1 488.206 -930.186 0
1 -77.6855 401.561 0
1 1163.85 -1120.91 0
1 -1875.65 461.09 0
1 -1863.15 917.79 0
1 2119.82 327.311 0
1 -1054.23 1185.73 0
1 859.093 -227.323 0
1 1132.33 717.504 0
1 -2104.27 706.167 0
1 1778.1 1319.91 0
1 1940.11 1184.34 0
1 1890.32 -1136.5 0
1 -1073.47 986.412 0
1 -1349.96 488.007 0
1 1020.38 -1079.57 0
1 2285.85 -27.6234 0
1 1780.19 1030.34 0
1 1851.17 -375.95 0
1 -1069.19 -421.59 0
1 1585.41 -599.092 0
1 -438.403 -1019.02 0
1 279.732 1062.16 0
1 1294.38 1256.74 0
1 -714.31 628.925 0
1 110.262 710.044 0
1 1027.71 -697.885 0
1 2265.81 931.31 0
1 -1823.79 -407.892 0
1 1953.97 -906.246 0
1 -1848.69 251.93 0
1 -553.906 967.136 0
1 -1995.03 -340.446 0
1 -622.519 -735.792 0
1 501.267 -34.7289 0
1 -528.64 -991.005 0
1 -102.601 -792.149 0
1 -1923.82 -14.0676 0
1 -2107.18 -220.381 0
1 297.616 -860.158 0
1 -227.553 196.637 0
1 367.075 -914.451 0
1 -319.809 -369.626 0
1 1538.04 -23.8837 0
1 -2009.89 -99.866 0
1 1569.29 1149.39 0
1 -1831.61 922.392 0
1 997.882 1057.47 0
1 998.332 89.2672 0
1 897.267 223.646 0
1 -630.385 -931.071 0
1 1317.4 -639.873 0
1 877.436 817.299 0
1 -1247.47 -173.523 0
1 -340.199 697.556 0
1 -1141.59 965.96 0
1 1110.06 793.916 0
1 -1215.39 -655.125 0
1 113.379 710.246 0
1 1451.67 748.019 0
1 476.132 642.502 0
1 181.298 -873.468 0
1 20.2419 -726.404 0
1 -1251.88 -995.453 0
1 -2120.9 603.663 0
1 47.9563 1353.91 0
1 -580.339 1098.42 0
1 -1270.1 957.265 0
1 -1398.66 -333.188 0
1 -1546.32 -14.9251 0
1 142.034 1191.03 0
1 -687.916 97.4084 0
1 527.799 -156.303 0
1 1221.75 -1134.99 0
1 509.325 -866.143 0
1 -121.114 573.661 0
1 -945.119 456.709 0
1 -353.863 186.316 0
1 370.707 775.487 0
1 -1916.92 26.2496 0
1 1427.62 -28.3285 0
1 2287.99 -915.791 0
1 137.508 527.347 0
1 9.03603 -256.735 0
1 -762.78 1046.77 0
1 -195.522 -391.663 0
1 -2028.06 -283.156 0
1 -2028.76 -329.547 0
1 1140.57 -391.139 0
1 -1539.18 740.135 0
1 -1192.89 -602.12 0
1 -621.89 -321.738 0
1 -1618.6 -389.219 0
1 -1702.28 735.214 0
1 -1476.01 7.89902 0
1 1137.39 -1171.05 0
1 -1534.38 1296.18 0
1 921.303 -493.851 0
1 1677.29 468.656 0
1 221.139 529.403 0
1 1288.31 427.03 0
1 -1983.5 -900.607 0
1 -813.813 -791.746 0
1 -105.393 778.936 0
1 2074.72 64.6362 0
1 2145.3 -713.948 0
1 -642.182 1333.47 0
1 -215.052 676.996 0
1 -243.293 -412.415 0
1 -935.594 377.517 0
1 -1811.82 -566.463 0
1 -1412.43 -938.606 0
1 67.3027 754.51 0
1 490.067 169.245 0
1 -1498.92 494.074 0
1 -111.665 623.883 0
1 -1964.14 -684.745 0
1 179.157 -820.412 0
1 1196.52 234.064 0
1 2310.26 -503.028 0
1 463.473 524.7 0
1 1413.43 -408.938 0
1 -355.481 944.153 0
1 1655.96 1337.58 0
1 -1551.89 728.265 0
1 -1599.98 728.752 0
1 2225.28 38.719 0
1 297.681 -682.202 0
1 -120.703 836.392 0
1 1136.67 793.792 0
1 -1364.13 97.2334 0
1 -2096.33 -786.047 0
1 2245.18 -899.061 0
1 -2085.25 -1136.54 0
1 96.8536 -617.199 0
1 -96.5761 -783.329 0
1 -2057.02 -669.978 0
1 720.431 1166.6 0
1 -2042.14 1059.66 0
1 -1176.43 175.503 0
1 -721.697 688.045 0
1 2148.43 1074.57 0
1 -1759.04 282.432 0
1 -824.888 -493.655 0
1 -1175.36 -528.504 0
1 -423.029 809.349 0
1 1204.36 -255.546 0
1 78.0532 85.1876 0
1 685.968 147.24 0
1 -1307.86 -405.673 0
1 357.617 -1127.54 0
1 -1137.7 624.389 0
1 -572.583 -524.002 0
1 -1702.66 133.441 0
1 -1503.51 -211.413 0
1 -858.151 -363.727 0
1 1160.51 685.712 0
1 460.615 11.2584 0
1 894.78 -973.179 0
1 -626.336 403.269 0
1 449.124 865.078 0
1 -1621.03 -127.548 0
1 308.247 -41.0622 0
1 1419.33 297.243 0
1 -206.206 -189.53 0
1 -1135.36 593.23 0
1 -1355.01 1243.52 0
1 153.997 1342.22 0
1 -350.573 -722.13 0
1 -1651.08 -550.491 0
1 -966.929 943.68 0
1 -1449.9 1167.17 0
1 501.742 1028.68 0
1 -2012.15 -593.351 0
1 741.748 -1023.28 0
1 1776.83 -1148.02 0
1 -1134.52 -363.825 0
1 61.2624 -56.1879 0
1 704.901 -547.245 0
1 -852.168 596.162 0
1 -1156.51 205.957 0
1 1302 -1130.38 0
1 -492.433 1308.71 0
1 -160.317 -804.047 0
1 1146.96 -617.977 0
1 2234.91 -267.442 0
1 243.023 1109.59 0
1 2052.13 -80.5595 0
1 -238.301 -658.153 0
1 -2046.24 -841.571 0
1 -377.373 293.29 0
1 -1228.1 -1200.15 0
1 1688.09 1267.37 0
1 730.726 -961.61 0
1 765.421 -558.418 0
1 -1112.53 -871.881 0
1 984.933 -564.645 0
1 1214.24 -140.36 0
1 253.493 -901.874 0
1 -1641.58 1215.29 0
1 -1911.4 -816.901 0
1 -1859.8 -228.79 0
1 -961.531 101.243 0
1 437.702 -766.963 0
1 -832.401 211.416 0
1 -1698.82 -217.557 0
1 77.6773 -785.271 0
1 406.335 305.258 0
1 1178.54 -222.052 0
1 1005.75 -341.097 0
1 338.289 -178.654 0
1 281.663 1230.05 0
1 1089.8 -470.23 0
1 317.717 -1058.57 0
1 -1340.38 227.949 0
1 1882 -964.555 0
1 1398.12 -527.184 0
1 563.143 835.929 0
1 -800.026 1336.96 0
1 -962.134 372.478 0
1 -1522.69 -89.3688 0
1 -2062.97 268.06 0
1 148.775 1125.08 0
1 1283.44 -836.719 0
1 182.236 820.572 0
1 -2084.74 -581.457 0
1 1280.29 1290.8 0
1 21.4568 -500.11 0
1 1514.32 883.874 0
1 -1096.38 -833.597 0
1 904.354 -1005.11 0
1 426.171 -1205.53 0
1 -1858.18 -1008.19 0
1 598.941 797.355 0
1 977.575 98.1601 0
1 -2013.43 -1139.03 0
1 1273.67 34.1062 0
1 1670 693.222 0
1 -660.781 -940.004 0
1 -1483.09 496.271 0
1 5.58922 -954.344 0
1 -650.405 1231.08 0
1 -888.183 -90.0815 0
1 -1641.17 1059.45 0
1 2330.24 1113.76 0
1 -2044.56 -485.153 0
1 627.545 -1017.98 0
1 915.273 1340 0
1 453.623 1178.2 0
1 -139.205 -948.7 0
1 277.39 272.435 0
1 -288.907 529.449 0
1 -298.747 -862.566 0
1 829.546 -904.438 0
1 -1550.72 792.576 0
1 357.676 -1206.64 0
1 2062.18 301.624 0
1 467.499 704.329 0
1 1146.82 -615.828 0
1 515.672 201.786 0
1 -42.7405 56.0434 0
1 816.92 -532.364 0
1 -1890.9 -1036.6 0
1 849.929 379.151 0
1 -1049.13 -519.88 0
1 1289.31 138.708 0
1 -1237.77 583.24 0
1 166.484 -263.49 0
1 -1611.85 1156.64 0
1 -608.095 -408.315 0
1 -1526.37 -741.957 0
1 -805.752 -1019.91 0
1 -1779.65 791.564 0
1 950.009 -209.461 0
1 -882.062 -296.472 0
1 1469.18 -365.092 0
1 2134.94 998.357 0
1 2270.84 110.129 0
1 -1166.55 1019.11 0
1 944.939 45.9652 0
1 145.441 -883.809 0
1 106.955 -406.486 0
1 781.049 286.183 0
1 -32.0375 -1051.2 0
1 -570.066 -989.219 0
1 851.286 -730.843 0
1 -1497.53 -376.579 0
1 1770.83 640.274 0
1 -539.772 730.545 0
1 -815.294 -329.436 0
1 -1769.75 -538.724 0
1 475.743 627.619 0
1 1650.04 261.678 0
1 425.284 1338.01 0
1 940.989 -812.883 0
1 237.18 1292.2 0
1 936.444 -830.184 0
1 2246.36 -891.473 0
1 -95.4636 -883.921 0
1 522.83 -1201.45 0
1 2110.39 -431.076 0
1 1513.71 938.187 0
1 -498.763 146.558 0
1 -1443.42 -974.706 0
1 -1432.78 1156.09 0
1 16.4962 -1105.15 0
1 2254.41 1238.78 0
1 -778.062 1109.77 0
1 -571.68 158.723 0
1 1620.47 1317.06 0
1 592.619 -935.505 0
1 1494.92 -557.778 0
1 -421.985 204.396 0
1 -565.061 -1055.77 0
1 258.657 -936.877 0
1 -1201.22 651.216 0
1 707.885 995.533 0
1 -1163.99 1097.16 0
1 -137.34 69.0817 0
1 -1399.27 1238.49 0
1 702.745 1332.04 0
1 2220.76 585.118 0
1 -1077.61 833.544 0
1 1758.6 -357.902 0
1 -1719.72 796.207 0
1 641.464 -466.192 0
1 34.0581 -249.87 0
1 2090.1 539.596 0
1 -1004.96 620.583 0
1 -1798.05 598.419 0
1 1206.17 268.384 0
1 2271.55 -377.834 0
1 1773.01 145.477 0
1 -73.6308 -128.915 0
1 -2036 -790.382 0
1 1396.77 919.058 0
1 -356.541 485.153 0
1 -1126.28 -1225.28 0
1 2180.43 -506.922 0
1 1772.24 699.87 0
1 265.165 -379.912 0
1 991.314 -113.768 0
1 -190.346 -510.61 0
1 -1150.63 -107.895 0
1 942.908 -688.377 0
1 -1032.55 1337.5 0
1 1311.48 -368.372 0
1 450.349 300.415 0
1 -1233.67 -513.196 0
1 1292.3 56.1182 0
1 -33.4407 1299.82 0
1 70.0578 -1071.51 0
1 -1966.25 314.168 0
1 338.372 -384.247 0
1 -1428.79 -973.793 0
1 1701.15 -558.24 0
1 -1252.5 514.249 0
1 209.531 -734.212 0
1 875.589 189.313 0
1 -1837.15 -288.598 0
1 1537.28 -997.129 0
1 1003.7 1158.51 0
1 388.665 -153.623 0
1 -1258.23 -650.628 0
1 1146.36 -1071.54 0
1 -1142.26 858.989 0
1 -1960.33 -292.308 0
1 -1304.93 1072.25 0
1 -879.048 -257.798 0
1 1020.29 -136.011 0
1 1329.43 70.578 0
1 -290.175 622.141 0
1 513.728 -385.031 0
1 -1968.45 908.369 0
1 -251.163 -434.042 0
1 -1157.47 -525.173 0
1 -670.41 307.852 0
1 1282.41 -373.277 0
1 381.09 621.518 0
1 -1100.53 736.12 0
1 -1239.65 -49.5767 0
1 1670.33 1152.92 0
1 1799.26 -462.192 0
1 239.605 -1186.64 0
1 -1826.66 455.149 0
1 759.947 773.888 0
1 1127.2 294.756 0
1 1097.67 1331.9 0
1 1324.18 337.904 0
1 -1477.46 185.494 0
1 339.922 -423.253 0
1 -1205.38 112.112 0
1 314.973 927.383 0
1 397.274 1076.48 0
1 -609.451 -1135.01 0
1 -1804.95 -305.24 0
1 687.059 -395.72 0
1 1243.13 -1192.61 0
1 590.777 -1171.35 0
1 -2031.93 618.364 0
1 2116.33 -663.089 0
1 -463.212 120.519 0
1 2126.82 -439.558 0
1 2089.52 -915.602 0
1 -1522.38 -935.367 0
1 -1174.38 -897.358 0
1 977.43 -710.955 0
1 -2066.92 -38.2917 0
1 -654.517 -760.477 0
1 -866.886 749.971 0
1 1075.77 -426.343 0
1 2065.23 169.284 0
1 -1462.35 992.846 0
1 753.611 30.2245 0
1 785.205 -362.531 0
1 -2023.62 783.431 0
1 1347.07 146.591 0
1 -379.44 -1120 0
1 822.527 -394.979 0
1 1134.48 177.071 0
1 1194.42 -58.7362 0
1 2031.02 -31.0931 0
1 -283.834 261.449 0
1 -2030.8 -266.901 0
1 406.276 -768.938 0
1 786.493 1285.7 0
1 2291.06 -678.404 0
1 -421.832 1138.1 0
1 236.179 -951.398 0
1 776.392 824.514 0
1 -525.569 1034.84 0
1 -1727.46 907.65 0
1 -1707.66 -1055.08 0
1 -824.511 1027.84 0
1 -277.695 1208.67 0
1 942.56 637.473 0
1 1251.89 875.142 0
1 -224.911 1074.84 0
1 1202.27 998.591 0
1 1896.78 943.784 0
1 1637.27 439.96 0
1 867.629 -226.363 0
1 -1536.58 384.155 0
1 1634.18 -479.943 0
1 433.666 -83.1945 0
1 -1798.06 -644.511 0
1 797.383 1336.24 0
1 2308.42 224.731 0
1 823.44 402.593 0
1 -1307.4 -1131.49 0
1 116.371 -130.925 0
1 -1504.39 678.63 0
1 1677.67 463.587 0
1 -493.002 838.603 0
1 -1174.95 187.698 0
1 1605.28 1027.37 0
1 -46.5148 13.7287 0
1 -1239.5 -1067.98 0
1 172.172 788.999 0
1 1216.01 -1115.73 0
1 1528.68 1059.61 0
1 -662.508 61.2404 0
1 1493.07 -425.237 0
1 -820.339 1219.61 0
1 -2038.3 892.706 0
1 1546.44 447.241 0
1 -1515.79 149.147 0
1 -1106.21 19.6072 0
1 -1073.7 1213.56 0
1 1310.3 427.839 0
1 1887.96 -848.553 0
1 264.288 -32.8029 0
1 1997.66 -1195.79 0
1 1370.3 -99.4742 0
1 311.641 -193.354 0
1 -1618.19 1204.59 0
1 2120.92 875.382 0
1 -1036.91 -364.165 0
1 -1939.46 106.657 0
1 189.509 -17.4407 0
1 2013.86 -478.158 0
1 2244.53 203.493 0
1 1394.64 -877.265 0
1 1722.1 435.548 0
1 -1043.86 -1207.71 0
1 1043.32 -114.31 0
1 966.849 44.396 0
1 -2035.26 -111.77 0
1 1024.15 256.663 0
1 -1512.31 -1177.79 0
1 722.666 -293.055 0
1 -939.905 -676.939 0
1 -1089.01 -414.58 0
1 1719.08 496.798 0
1 -1245.92 82.1165 0
1 -322.676 374.191 0
1 -1745.39 901.515 0
1 -1377.02 -930.363 0
1 -1846.85 1314.06 0
1 -798.659 1304.25 0
1 1471.18 -307.149 0
1 513.667 -566.157 0
1 2082.74 1100.66 0
1 -1339.71 -806.998 0
1 2346.19 359.95 0
1 -380.013 1324.97 0
1 1240.04 168.909 0
1 -196.795 481.203 0
1 -1194.93 253.029 0
1 1684.32 -571.039 0
1 1873.83 65.416 0
1 -964.334 -141.467 0
1 -429.216 453.415 0
1 -864.696 -282.872 0
1 -1841.72 258.515 0
1 444.738 -1122.12 0
1 1673.51 394.173 0
1 -613.661 61.7109 0
1 -1563.18 -1036.73 0
1 -1233.83 -69.7794 0
1 -22.805 23.5694 0
1 1153.93 642.086 0
1 19.5892 -616.431 0
1 72.2434 -703.544 0
1 -1418.42 580.426 0
1 2138.3 1192.43 0
1 -1812.97 721.791 0
1 495.566 6.04387 0
1 1542.22 986.532 0
1 -1931.86 -746.504 0
1 -186.566 1341.05 0
1 -1328.29 782.671 0
1 -598.716 147.738 0
1 1119.54 -1037.06 0
1 1177.79 991.517 0
1 -1208.93 868.241 0
1 504.834 -850.759 0
1 1755.07 -756.671 0
1 2346.96 907.671 0
1 -175.727 1161.73 0
1 1621.34 -391.816 0
1 1973.72 -113.295 0
1 1363.67 -330.494 0
1 258.833 195.426 0
1 752.114 356.041 0
1 404.628 1113.55 0
1 -1857.36 407.284 0
1 1321.73 41.9764 0
1 -1008.24 1280.79 0
1 -1985.52 192.403 0
1 -1405.26 406.775 0
1 401.207 -788.413 0
1 -1582.42 248.348 0
1 -315.022 576.463 0
1 -1717.36 717.499 0
1 756.008 29.2692 0
1 710.177 1031.38 0
1 -72.5762 419.947 0
1 1026.48 690.848 0
1 -906.279 -489.653 0
1 -2127.2 1313.67 0
1 1874.22 -866.854 0
1 -426.885 15.8787 0
1 -849.827 351.877 0
1 -2056.01 -177.106 0
1 945.314 -1011.5 0
1 -1125.57 -143.883 0
1 881.285 489.6 0
1 -1261.71 -133.84 0
1 -1123.69 1119.73 0
1 -1173.91 161.092 0
1 -498.594 1142.74 0
1 -1375.58 1329.49 0
1 227.006 983.089 0
1 399.87 -583.394 0
1 536.366 -1073.94 0
1 -530.112 -48.5074 0
1 -582.32 807.482 0
1 1164.26 -116.82 0
1 -2040.92 -1123.35 0
1 1336.71 -818.078 0
1 1299.91 88.977 0
1 1779.46 -215.909 0
1 -894.726 -5.65562 0
1 -1286.25 -773.369 0
1 923.651 -709.792 0
1 1861.05 -10.3378 0
1 558.98 245.728 0
1 347.581 -905.48 0
1 667.489 -862.686 0
1 808.801 -183.238 0
1 -769.259 1075.13 0
1 -18.745 280.191 0
1 2273.73 170.142 0
1 941.415 -218.399 0
1 -1968.3 -495.958 0
1 1668.61 1353.95 0
1 1376.51 -775.738 0
1 66.8772 -832.199 0
1 1344.75 -407.926 0
1 -896.089 -1184.69 0
1 -307.803 -298.468 0
1 -1694.28 160.227 0
1 670.298 408.699 0
1 1906.78 434.517 0
1 -34.3263 -319.07 0
1 1619.4 -414.451 0
1 1783.5 50.1008 0
1 331.931 1239.22 0
1 -894.027 -268.823 0
1 -797.699 -40.5068 0
1 1089.7 -29.3616 0
1 -2132.74 969.838 0
1 1339.64 -1055.09 0
1 -785.803 -327.079 0
1 70.7429 -702.034 0
1 -794.651 -38.5597 0
1 -1731.64 -444.088 0
1 631.412 -858.51 0
1 -435.444 1241.86 0
1 -1186.59 -579.474 0
1 2236.58 444.601 0
1 -868.799 -240.949 0
1 -221.846 -688.834 0
1 359.442 -1163.54 0
1 574.058 -677.122 0
1 119.089 383.127 0
1 -384.719 1208.38 0
1 -714.874 -1219.34 0
1 1429.99 -581.01 0
1 -1285.24 -255.987 0
1 -482.648 -402.788 0
1 964.686 -271.641 0
1 -1924.27 -633.494 0
1 2326.21 204.643 0
1 1196.72 -177.185 0
1 786.544 192.935 0
1 261.89 1120.87 0
1 -1983.52 -18.5173 0
1 525.38 1233.32 0
1 -1902.1 -376.966 0
1 1832.68 -1140.68 0
1 1434.08 517.381 0
1 1576.49 159.684 0
1 -1584.68 1004.55 0
1 1324.38 1093.92 0
1 1560.78 576.729 0
1 -2015.97 706.611 0
1 900.829 -391.018 0
1 1765.51 -801.985 0
1 -887.42 883.387 0
1 -1177.11 -100.622 0
1 2109.27 678.671 0
1 -97.0127 571.385 0
1 -557.193 100.568 0
1 1386.31 1204.68 0
1 -769.569 1206.06 0
1 -1598.68 -1162.08 0
1 1840.85 -759.593 0
1 -919.559 -1181.11 0
1 2150.33 118.176 0
1 1382.11 -423.333 0
1 1086.24 -476.312 0
1 -1441.15 759.627 0
1 -1738.71 516.163 0
1 511.252 362.209 0
1 685.417 -539.653 0
1 870.189 64.5017 0
1 -663.414 -24.7558 0
1 464.013 15.0633 0
1 321.352 1162.93 0
1 -770.929 19.1774 0
1 1540.01 1010.8 0
1 -1352.91 552.878 0
1 1865.25 -177.397 0
1 1397.19 -759.467 0
1 -771.709 -485.27 0
1 1757.65 -750.382 0
1 1123.18 577.214 0
1 -1007.18 -414.266 0
1 2183.67 -801.089 0
1 1606.94 977.87 0
1 -979.971 226.757 0
1 298.867 349.942 0
1 -1305.68 -395.159 0
1 -527.336 -1196.66 0
1 346.998 -242.164 0
1 -1087.88 -425.038 0
1 -1460.94 -728.458 0
1 -1876.99 -973.072 0
1 251.927 1003.05 0
1 1407.88 -689.334 0
1 -1244.29 600.973 0
1 -507.967 628.133 0
1 -185.507 -1171.64 0
1 -1057.06 -632.805 0
1 -2094.76 -322.262 0
1 -268.092 -943.319 0
1 1383.48 844.142 0
1 356.204 -453.523 0
1 1753.73 916.408 0
1 1228.84 36.1073 0
1 131.371 10.8903 0
1 255.256 1048.69 0
1 1512.88 -1218.88 0
1 2159.17 -1.19603 0
1 -216.551 -19.6339 0
1 -568.323 822.493 0
1 2174.84 -562.289 0
1 1211.78 73.2079 0
1 841.28 -1008.16 0
1 -717.556 730.618 0
1 -233.016 1312.22 0
1 1074.38 -289.9 0
1 1642.26 -950.149 0
1 -2017.89 -603.41 0
1 344.5 1258.21 0
1 1159.13 1.40642 0
1 -1349.46 -769.782 0
1 1246.76 844.597 0
1 1152.97 1001.69 0
1 -1172.73 -192.546 0
1 65.4662 1254.73 0
1 -1946.81 -22.9526 0
1 -188.178 187.712 0
1 1229.37 -1059.1 0
1 373.807 471.457 0
1 -907.689 -476.895 0
1 1028.96 -247.019 0
1 2340.49 403.938 0
1 2165.94 786.587 0
1 114.33 1164.4 0
1 2257.44 -638.715 0
1 -836.296 958.872 0
1 -689.778 -35.7525 0
1 -1994.29 170.739 0
1 -54.4252 -569.228 0
1 2087.36 -1029.37 0
1 1082.85 -279.543 0
1 745.511 -189.168 0
1 8.23693 -17.1818 0
1 -1568.24 -275.489 0
1 -1959.41 1091.28 0
1 2092.76 -77.141 0
1 -855.374 -308.294 0
1 1032 122.039 0
1 -555.343 738.602 0
1 -681.408 52.8556 0
1 -1367.81 479.725 0
1 -1384.78 1140.08 0
1 43.9776 712.988 0
1 263.808 259.836 0
1 -1247.24 -118.087 0
1 2288.85 250.125 0
1 1987.69 1253.29 0
1 -1876.81 -765.195 0
1 -1989.2 1015.44 0
1 1826.95 -1056.14 0
1 1003.31 484.57 0
1 521.599 1154.99 0
1 1399.9 -647.76 0
1 -1467.15 112.126 0
1 34.2849 -1179.99 0
1 79.8152 83.7689 0
1 461.707 13.5973 0
1 -1283.54 -1092.34 0
1 -1424.77 -832.225 0
1 719.891 -574.657 0
1 1715.48 667.658 0
1 1176.79 38.2816 0
1 -1348.95 -624.511 0
1 -92.123 -478.087 0
1 -1573.15 -372.533 0
1 1486.87 -895.493 0
1 -1006.34 1232.53 0
1 529.584 335.047 0
1 -1311.81 1330.55 0
1 1071.74 663.342 0
1 -1410.54 1272.26 0
1 1924.29 848.586 0
1 682.279 1289.49 0
1 -2132.42 741.911 0
1 1702.69 -596.033 0
1 -1581.25 -588.372 0
1 -655.511 182.734 0
1 1714.45 -1005.59 0
1 -1311.54 722.122 0
1 1340.35 -58.5361 0
1 -1196.86 760.77 0
1 584.584 620.112 0
1 -1604.53 -884.315 0
1 -719.747 -488.528 0
1 234.055 -501.415 0
1 -1932.09 11.1211 0
1 1606.08 -1232.11 0
1 712.895 463.738 0
1 1320.11 -488.253 0
1 -1851.31 936.772 0
1 20.7268 -984.597 0
1 -955.053 -526.035 0
1 849.085 700.146 0
1 -321.365 637.923 0
1 -88.4324 -689.849 0
1 239.635 -379.309 0
1 -1221.95 1290.05 0
1 -839.235 -1074.61 0
1 335.874 -178.434 0
1 -1866.27 668.104 0
1 645.118 618.202 0
1 1318.24 -170.193 0
1 -486.272 -342.242 0
1 1559.8 119.671 0
1 -879.448 -774.558 0
1 -1574.09 -752.441 0
1 1145.19 482.404 0
1 -243.758 -217.223 0
1 1482.42 334.506 0
1 1630.59 1152.02 0
1 -1078.59 -685.25 0
1 -1612.74 -422.081 0
1 1738.92 463.972 0
1 158.43 -801.278 0
1 1674.05 -693.789 0
1 -196.984 913.137 0
1 4.38902 1064.75 0
1 884.841 743.153 0
1 357.153 -455.835 0
1 1532.59 1288.2 0
1 2171.86 1177.35 0
1 -86.499 626.357 0
1 -658.116 1315.45 0
1 1987.42 -327.002 0
1 1384.01 -737.098 0
1 -1611.2 -941.703 0
1 1527.74 -198.659 0
1 -1517.88 -794.415 0
1 -1051.99 81.3758 0
1 1620.39 -656.507 0
1 -1267.98 -258.608 0
1 -1737.12 -28.1655 0
1 -2052.81 160.931 0
1 135.294 337.712 0
1 145.482 1322 0
1 -242.595 49.3122 0
1 -1278.96 -141.874 0
1 362.762 -103.093 0
1 1300.23 311.948 0
1 1618.85 1276.81 0
1 -1137.02 798.91 0
1 -2095.2 -366.041 0
1 1704.13 -803.78 0
1 -2056.39 855.563 0
1 404.403 -803.229 0
1 -1763.65 -742.612 0
1 2001.03 -49.1479 0
1 -812.705 -903.95 0
1 150.51 -834.246 0
1 1035.83 852.297 0
1 677.779 -87.9146 0
1 -1833.54 -901.022 0
1 1414.09 96.8217 0
1 488.454 -990.088 0
1 1431.63 -1095.69 0
1 1497.01 -236.008 0
1 -1067.35 849.396 0
1 -1953.13 -709.228 0
1 -929.115 -806.215 0
1 -1492.66 616.617 0
1 1547.85 1191.05 0
1 -464.105 679.1 0
1 2030.43 946.142 0
1 -1894.19 660.628 0
1 1578.44 -296.099 0
1 -271.676 1335.32 0
1 -411.686 218.212 0
1 44.4574 -282.008 0
1 1018.11 -816.7 0
1 -1232.79 -161.456 0
1 908.927 403.504 0
1 -620.522 -638.452 0
1 2318.62 -176.682 0
1 -581.58 -435.48 0
1 993.714 947.451 0
1 -624.039 1223.73 0
1 -1647.22 211.021 0
1 -311.647 -645.399 0
1 60.997 -881.121 0
1 2288.13 1173.03 0
1 308.177 -419.859 0
1 1663.48 720.874 0
1 -933.561 -1051.16 0
1 2174.78 -1159.49 0
1 1999.79 22.504 0
1 2127.66 -30.6022 0
1 734.264 -646.169 0
1 -761.184 -1105.88 0
1 566.211 -371.083 0
1 -1672.94 -370.514 0
1 -157.057 -1077.14 0
1 -1453.52 215.366 0
1 -2081.77 69.7343 0
1 2054.93 -1117.36 0
1 -2041.28 -1130.4 0
1 -2101.84 -1053.66 0
1 1624.38 -1027.06 0
1 -1118.2 -648.441 0
1 1569.84 -964.767 0
1 627.549 391.656 0
1 558.383 -116.925 0
1 1805.88 -814.745 0
1 337.196 -971.375 0
1 -1651.95 -544.932 0
1 480.167 -371.602 0
1 -15.8114 1222.48 0
1 984.933 1307.36 0
1 -1904.4 -835.192 0
1 166.448 -1215.32 0
1 281.805 794.799 0
1 -451.47 831.513 0
1 210.747 -628.178 0
1 236.094 -939.798 0
1 1695.59 1010.24 0
1 891.27 267.245 0
1 953.614 -102.772 0
1 281.869 790.113 0
1 -237.844 -884.957 0
1 -1599.01 -71.9214 0
1 2333.63 -202.107 0
1 920.667 280.397 0
1 199.832 -712.122 0
1 1704.13 -597.706 0
1 -1069.7 707.157 0
1 -1283.26 930.81 0
1 -1183.65 747.959 0
1 625.419 392.994 0
1 -1920.61 998.382 0
1 -2041.23 739.891 0
1 1707.11 -983.869 0
1 -553.95 449.7 0
1 727.615 -1079.79 0
1 -197.096 -381.388 0
1 -1451.16 1120.59 0
1 266.785 -8.72478 0
1 1234.18 884.085 0
1 1669.08 -1159.88 0
1 2271.46 -405.519 0
1 -804.633 361.007 0
1 -207.954 725.364 0
1 -1573.97 875.562 0
1 -594.558 1232.06 0
1 -1460.51 96.7107 0
1 1244.66 548.17 0
1 1401 1050.32 0
1 934.954 314.007 0
1 645.824 753.147 0
1 -489.014 979.12 0
1 930.873 981.563 0
1 -1889.41 893.044 0
1 -1265.54 1194.39 0
1 -106.246 -671.858 0
1 -784.156 245.69 0
1 -2080.18 1038.3 0
1 -1577.86 -267.049 0
1 881.163 848.677 0
1 -174.029 -141.445 0
1 -2046.02 301.036 0
1 -475.696 -1220.03 0
1 2178.04 -1142.23 0
1 -385.781 -930.565 0
1 -383.809 275.423 0
1 -512.489 -78.5082 0
1 -649.795 -654.182 0
1 -347.292 926.027 0
1 -1266.5 -657.465 0
1 -921.918 1126.55 0
1 -1222.26 425.773 0
1 -502.545 -888.466 0
1 989.153 1040.45 0
1 222.43 -987.141 0
1 -945.361 1311.53 0
1 1943.13 852.162 0
1 -333.605 -505.432 0
1 2089.21 1342.23 0
1 53.6768 645.872 0
1 1574.18 -783.856 0
1 570.533 317.646 0
1 -1315.7 -250.592 0
1 1498.9 87.823 0
1 2158.93 767.503 0
1 1729.06 -1176.62 0
1 -1574.28 1000.46 0
1 1415.56 277.593 0
1 1680.2 -274.15 0
1 -63.256 661.187 0
1 -2017.54 -1159.78 0
1 907.372 -618.044 0
1 1184.93 277.303 0
1 916.184 1.34941 0
1 1243.27 -105.602 0
1 -852.117 1158.99 0
1 356.455 438.511 0
1 519.482 -869.752 0
1 1336.49 -249.598 0
1 -665.845 57.3547 0
1 -1240.44 -1032.02 0
1 -1181.18 -88.1221 0
1 924.753 873.943 0
1 -919.149 -517.735 0
1 -905.686 429.942 0
1 -1253.48 -48.4584 0
1 749.121 730.006 0
1 2179.48 -631.862 0
1 1580.27 931.884 0
1 -1911.91 488.413 0
1 976.769 -12.4548 0
1 -2091.68 1290.47 0
1 478.179 1142.96 0
1 -213.385 -228.542 0
1 -1458.2 -787.404 0
1 -1381.42 1219.95 0
1 1921.97 943.815 0
1 2171.56 -769.062 0
1 2281.8 -1058.91 0
1 -1345.93 78.785 0
1 271.444 227.542 0
1 523.434 553.962 0
1 1356.23 -229.095 0
1 1125.34 -905.968 0
1 2270.22 1211.66 0
1 -711.331 306.421 0
1 2349.26 107.766 0
1 1197.06 667.59 0
1 -1283.46 64.3576 0
1 133.061 564.585 0
1 371.3 598.298 0
1 -1031.65 908.717 0
1 1103.95 24.1254 0
1 1529.25 -274.82 0
1 1392.71 366.57 0
1 1952.46 -735.284 0
1 1536.29 -973.173 0
1 2129.14 195.487 0
1 -819.292 1303.92 0
1 -1986.71 -638.956 0
1 610.473 402.663 0
1 2192.64 1218.97 0
1 -1239.65 -953.59 0
1 1903.17 384.728 0
1 -1.55594 -897.226 0
1 853.157 196.879 0
1 -633 142.057 0
1 -1472.99 -1198.7 0
1 -1434.88 -1075.97 0
1 -1314.13 722.563 0
1 1940.76 -988.902 0
1 -874.782 339.01 0
1 -1799.78 792.905 0
1 1307.19 1108.91 0
1 -377.092 1222.63 0
1 -1583.62 557.191 0
1 -1082.91 -102.65 0
1 1681.09 401.35 0
1 -780.946 -762.417 0
1 -1809.07 1104.6 0
1 1981.48 -414.363 0
1 -1979.34 -227.085 0
1 195.975 80.266 0
1 -1889.37 -767.551 0
1 -1975.55 -1044.23 0
1 -136.624 -948.816 0
1 -1283.81 -870.157 0
1 -1555.06 676.765 0
1 1739.62 1074.79 0
1 1843.26 351.829 0
1 -1271.11 688.235 0
1 -103.871 171.935 0
1 1802.36 316.263 0
1 2160.75 -458.646 0
1 -2059.09 -1211.72 0
1 -126.027 -960.433 0
1 -1945.3 671.429 0
1 -1677.05 -520.693 0
1 999.831 1125.67 0
1 131.844 -1107.15 0
1 1374.84 -257.852 0
1 2205.82 -975.446 0
1 1406.37 -1075.39 0
1 906.057 -260.932 0
1 588.363 102.942 0
1 -196.565 691.488 0
1 -945.042 45.1486 0
1 1246.37 -528.004 0
1 571.212 -622.035 0
1 274.556 663.181 0
1 -1131.48 1223.67 0
1 1755.45 -749.675 0
1 1717.36 521.426 0
1 -1525.82 -1090.43 0
1 826.606 1318.03 0
1 -66.0705 -1059.17 0
1 -842.492 14.2122 0
1 2136.13 752.466 0
1 -736.047 -553.048 0
1 748.474 1209.09 0
1 1089.73 -31.7902 0
1 -172.994 367.023 0
1 -291.393 62.4756 0
1 -577.519 -306.393 0
1 988.467 469.468 0
1 -580.076 433.589 0
1 -1037.48 -116.467 0
1 451.665 1148.17 0
1 675.682 1107.36 0
1 1119.76 -992.252 0
1 169.607 -257.257 0
1 286.946 1014.49 0
1 -1153.72 353.795 0
1 2262.65 1180.61 0
1 -539.432 644.272 0
1 2176.05 723.186 0
1 -1927.93 1305.36 0
1 655.842 -436.552 0
1 -1392.5 752.074 0
1 -1814.21 -402.612 0
1 864.157 655.294 0
1 180.292 1273.4 0
1 -860.641 -81.5227 0
1 1823.23 -538.458 0
1 -637.401 59.577 0
1 1846.47 421.969 0
1 -531.726 236.294 0
1 2347.13 -359.189 0
1 -32.6541 -15.4718 0
1 2063.61 -1126.52 0
1 -1606.41 -196.451 0
1 992.065 -133.099 0
1 -1049.72 -1064.35 0
1 -1565.23 -1060.35 0
1 -485.598 1099.61 0
1 -109.923 458.476 0
1 -177.223 1127.99 0
1 363.779 1017.5 0
1 -1270.86 1341.52 0
1 662.408 -951.41 0
1 1427.82 -464.477 0
1 1774.65 -964.851 0
1 -1019.39 -15.3287 0
1 1052.92 -997.349 0
1 132.789 116.83 0
1 -924.034 547.933 0
1 -1044.13 -1003 0
1 1406.76 -776.739 0
1 636.875 1037.62 0
1 -1514.12 732.501 0
1 1887.43 -38.98 0
1 1524.71 -703.039 0
1 1623.19 1071.79 0
1 -844.554 -160.952 0
1 2291.01 -1152.45 0
1 -720.712 -38.2215 0
1 2282.57 578.91 0
1 -1517.97 28.1586 0
1 2321.31 -854.301 0
1 -243.597 1344.04 0
1 869.591 256.216 0
1 864.205 -1107.06 0
1 1113.12 -68.3728 0
1 1891.7 -949.383 0
1 1048.78 378.522 0
1 -2012.67 -141.82 0
1 1816.69 311.034 0
1 1682.62 -483.929 0
1 -2115.64 -403.484 0
1 -1830.93 373.069 0
1 -101.156 486.899 0
1 569.892 1122.16 0
1 898.84 -260.646 0
1 1061.35 -398.486 0
1 -1386.56 -137.722 0
1 772.737 723.38 0
1 -2037.43 -433.732 0
1 -1880.1 730.597 0
1 -461.607 -159.584 0
1 1085.34 -84.211 0
1 -1681.94 1192.9 0
1 703.348 -835.019 0
1 1291.84 -703.661 0
1 1989.47 -0.47246 0
1 2305.55 567.901 0
1 -2111.6 265.754 0
1 -866.822 -727.733 0
1 -1927.24 -691.56 0
1 -262.529 913.866 0
1 -1839.49 941.274 0
1 -2057.77 271.644 0
1 -1729.03 -1105.22 0
1 -684.256 525.437 0
1 2215.7 749.947 0
1 -210.526 -280.133 0
1 -561.171 1022.73 0
1 942.956 -1102.13 0
1 1235.73 42.1138 0
1 -763.898 920.014 0
1 -1383.99 1341.57 0
1 1522.56 -1005.76 0
1 1809.15 795.213 0
1 -450.802 -286.66 0
1 972.17 893.018 0
1 695.278 385.88 0
1 -15.4716 709.812 0
1 -159.794 -711.709 0
1 -2062.32 1182.35 0
1 -1635.03 -1187.71 0
1 887.332 857.031 0
1 1411.54 483.45 0
1 951.247 -314.572 0
1 969.815 883.021 0
1 -1968.65 -551.885 0
1 -1172.73 -1100.85 0
1 21.459 1130.62 0
1 -200.395 214.136 0
1 425.305 1295.66 0
1 -1980.63 -858.903 0
1 985.21 -1205.51 0
1 -1933.26 602.141 0
1 -1794.25 427.579 0
1 -816.135 261.099 0
1 -1252.03 1276.64 0
1 1911.55 921.344 0
1 1505.34 -341.06 0
1 1912.06 924.472 0
1 1867.99 302.146 0
1 -427.591 -32.0544 0
1 260.847 282.301 0
1 -2083.66 -829.618 0
1 2074.28 1117.74 0
1 -1436.19 554.697 0
1 -1034.76 1094.97 0
1 431.029 -1170.99 0
1 767.261 -476.823 0
1 -1784.81 -840.112 0
1 -1436.54 739.626 0
1 -1007.43 -542.985 0
1 1914.4 237.465 0
1 -1220.09 -1186.19 0
1 623.216 472.186 0
1 -821.314 -405.818 0
1 -1777.06 761.138 0
1 -1376.59 1058.21 0
1 -524.554 -283.52 0
1 -890.273 -343.331 0
1 2065.38 -713.515 0
1 701.98 163.538 0
1 -1891.97 -531.989 0
1 -631.086 73.989 0
1 1962.46 565.416 0
1 -1424.92 567.565 0
1 -1546.68 -521.621 0
1 -1277.23 348.6 0
1 169.561 787.68 0
1 -410.176 -492.156 0
1 -497.47 888.602 0
1 762.9 -214.518 0
1 1064.52 -933.079 0
1 -1411.03 521.426 0
1 -1284.38 1123.34 0
1 -123.777 -718.494 0
1 -688.086 -1195.11 0
1 2303.95 -333.957 0
1 -168.009 -606.011 0
1 1213.3 868.133 0
1 1264.77 -480.648 0
1 -348.238 221.423 0
1 -354.536 188.297 0
1 514.947 -1179.66 0
1 171.635 848.937 0
1 2238.05 1302.03 0
1 -772.482 -525.383 0
1 913.494 1038.55 0
1 121.294 -1047.44 0
1 1423.13 -386.959 0
1 820.001 929.328 0
1 -656.816 -272.696 0
1 1236.77 -51.6998 0
1 76.8743 -899.572 0
1 2076.08 -322.753 0
1 1695.29 1247.19 0
1 1338.11 152.525 0
1 379.876 1246.42 0
1 -573.21 948.875 0
1 1395.78 -681.084 0
1 -676.154 375.464 0
1 1275.07 -342.981 0
1 -156.687 -860.966 0
1 -907.159 648.989 0
1 -1543.71 1274.31 0
1 -847.186 -368.103 0
1 982.524 576.864 0
1 -1416.15 1116.36 0
1 -1831.34 1214.73 0
1 751.312 998.868 0
1 1876.59 -977.526 0
1 -2059.4 -601.295 0
1 -1612.82 1304.47 0
1 -1837.32 -350.274 0
1 -829.53 1041.54 0
1 1796.89 1338.04 0
1 31.0402 445.091 0
1 -963.365 -120.744 0
1 -257.41 894.677 0
1 -261.28 -868.578 0
1 -112.094 -1015.56 0
1 -97.5914 -203.706 0
1 -2109.82 -203.538 0
1 -1984.43 -255.491 0
1 2281.29 -147.02 0
1 631.396 1219.97 0
1 1122.85 1105.55 0
1 1824.04 871.748 0
1 -119.956 385.292 0
1 2068.58 -751.073 0
1 -99.7933 655.75 0
1 2264.13 810.704 0
1 71.6077 -886.727 0
1 958.469 647.146 0
1 1604.69 953.293 0
1 1871.11 853.983 0
1 965.001 1048.18 0
1 1419.76 714.549 0
1 2061.93 276.39 0
1 -462.056 462.633 0
1 175.705 1066.32 0
1 -577.707 986.547 0
1 1593.02 183.753 0
1 -152.403 -424.966 0
1 -672.326 -901.552 0
1 -2054.24 386.923 0
1 1627.59 -38.6129 0
1 -476.323 -234.166 0
1 -1454.52 865.007 0
1 1533.55 1316 0
1 671.369 168.627 0
1 1986.43 168.517 0
1 -1289.48 313.973 0
1 -1764.14 804.362 0
1 -497.524 967.138 0
1 -1013.92 294.619 0
1 -1228.68 -909.522 0
1 -133.313 -944.375 0
1 -275.873 -1002.49 0
1 -1526.93 822.226 0
1 315.176 -101.515 0
1 -1765.06 -1050.68 0
1 948.106 -600.265 0
1 1714.96 -909.721 0
1 864.151 -702.43 0
1 -1774.73 -299.388 0
1 2152.74 -361.304 0
1 -1257.69 -341.59 0
1 1214.32 281.348 0
1 150.713 203.55 0
1 -1465.35 421.524 0
1 -2068.89 -534.178 0
1 -788.952 -266.257 0
1 -1842.49 -1113.47 0
1 1947.68 734.9 0
1 1460.6 -930.148 0
1 2201.66 469.778 0
1 -2016.48 -226.188 0
1 360.493 707.466 0
1 1645.08 -411.274 0
1 -734.32 1169.73 0
1 -846.246 -891.772 0
1 491.359 1238.46 0
1 1994 661.605 0
1 -892.733 -592.872 0
1 166.536 828.022 0
1 340.243 -746.676 0
1 897.319 467.477 0
1 -1536.91 -443.497 0
1 -1620.83 949.584 0
1 45.2667 -107.522 0
1 2308.14 -29.0817 0
1 2080.1 1305.84 0
1 -1431.44 587.503 0
1 -173.929 671.818 0
1 1537.27 1004.77 0
1 1756.38 -878.991 0
1 436.081 311.175 0
1 -1349.85 845.531 0