400
Atoms. Timestep: 0
1 0 1.22974 0
1 0.709997 0 0
1 2.13 0 0
1 2.84 1.22974 0
1 4.26 1.22974 0
1 4.97 0 0
1 6.39 0 0
1 7.1 1.22974 0
1 8.52 1.22974 0
1 9.23 0 0
1 10.65 0 0
1 11.36 1.22974 0
1 12.78 1.22974 0
1 13.49 0 0
1 14.91 0 0
1 15.62 1.22974 0
1 17.04 1.22974 0
1 17.75 0 0
1 19.17 0 0
1 19.88 1.22974 0
1 21.3 1.22974 0
1 22.01 0 0
1 23.43 0 0
1 24.14 1.22974 0
1 25.56 1.22974 0
1 26.27 0 0
1 27.69 0 0
1 28.4 1.22974 0
1 29.82 1.22974 0
1 30.53 0 0
1 31.95 0 0
1 32.66 1.22974 0
1 34.08 1.22974 0
1 34.79 0 0
1 36.21 0 0
1 36.92 1.22974 0
1 38.34 1.22974 0
1 39.05 0 0
1 40.47 0 0
1 41.18 1.22974 0
1 0 3.68922 0
1 0.709997 2.45948 0
1 2.13 2.45948 0
1 2.84 3.68922 0
1 4.26 3.68922 0
1 4.97 2.45948 0
1 6.39 2.45948 0
1 7.1 3.68922 0
1 8.52 3.68922 0
1 9.23 2.45948 0
1 10.65 2.45948 0
1 11.36 3.68922 0
1 12.78 3.68922 0
1 13.49 2.45948 0
1 14.91 2.45948 0
1 15.62 3.68922 0
1 17.04 3.68922 0
1 17.75 2.45948 0
1 19.17 2.45948 0
1 19.88 3.68922 0
1 21.3 3.68922 0
1 22.01 2.45948 0
1 23.43 2.45948 0
1 24.14 3.68922 0
1 25.56 3.68922 0
1 26.27 2.45948 0
1 27.69 2.45948 0
1 28.4 3.68922 0
1 29.82 3.68922 0
1 30.53 2.45948 0
1 31.95 2.45948 0
1 32.66 3.68922 0
1 34.08 3.68922 0
1 34.79 2.45948 0
1 36.21 2.45948 0
1 36.92 3.68922 0
1 38.34 3.68922 0
1 39.05 2.45948 0
1 40.47 2.45948 0
1 41.18 3.68922 0
1 0 6.14871 0
1 0.709997 4.91897 0
1 2.13 4.91897 0
1 2.84 6.14871 0
1 4.26 6.14871 0
1 4.97 4.91897 0
1 6.39 4.91897 0
1 7.1 6.14871 0
1 8.52 6.14871 0
1 9.23 4.91897 0
1 10.65 4.91897 0
1 11.36 6.14871 0
1 12.78 6.14871 0
1 13.49 4.91897 0
1 14.91 4.91897 0
1 15.62 6.14871 0
1 17.04 6.14871 0
1 17.75 4.91897 0
1 19.17 4.91897 0
1 19.88 6.14871 0
1 21.3 6.14871 0
1 22.01 4.91897 0
1 23.43 4.91897 0
1 24.14 6.14871 0
1 25.56 6.14871 0
1 26.27 4.91897 0
1 27.69 4.91897 0
1 28.4 6.14871 0
1 29.82 6.14871 0
1 30.53 4.91897 0
1 31.95 4.91897 0
1 32.66 6.14871 0
1 34.08 6.14871 0
1 34.79 4.91897 0
1 36.21 4.91897 0
1 36.92 6.14871 0
1 38.34 6.14871 0
1 39.05 4.91897 0
1 40.47 4.91897 0
1 41.18 6.14871 0
1 0 8.60819 0
1 0.709997 7.37845 0
1 2.13 7.37845 0
1 2.84 8.60819 0
1 4.26 8.60819 0
1 4.97 7.37845 0
1 6.39 7.37845 0
1 7.1 8.60819 0
1 8.52 8.60819 0
1 9.23 7.37845 0
1 10.65 7.37845 0
1 11.36 8.60819 0
1 12.78 8.60819 0
1 13.49 7.37845 0
1 14.91 7.37845 0
1 15.62 8.60819 0
1 17.04 8.60819 0
1 17.75 7.37845 0
1 19.17 7.37845 0
1 19.88 8.60819 0
1 21.3 8.60819 0
1 22.01 7.37845 0
1 23.43 7.37845 0
1 24.14 8.60819 0
1 25.56 8.60819 0
1 26.27 7.37845 0
1 27.69 7.37845 0
1 28.4 8.60819 0
1 29.82 8.60819 0
1 30.53 7.37845 0
1 31.95 7.37845 0
1 32.66 8.60819 0
1 34.08 8.60819 0
1 34.79 7.37845 0
1 36.21 7.37845 0
1 36.92 8.60819 0
1 38.34 8.60819 0
1 39.05 7.37845 0
1 40.47 7.37845 0
1 41.18 8.60819 0
1 0 11.0677 0
1 0.709997 9.83793 0
1 2.13 9.83793 0
1 2.84 11.0677 0
1 4.26 11.0677 0
1 4.97 9.83793 0
1 6.39 9.83793 0
1 7.1 11.0677 0
1 8.52 11.0677 0
1 9.23 9.83793 0
1 10.65 9.83793 0
1 11.36 11.0677 0
1 12.78 11.0677 0
1 13.49 9.83793 0
1 14.91 9.83793 0
1 15.62 11.0677 0
1 17.04 11.0677 0
1 17.75 9.83793 0
1 19.17 9.83793 0
1 19.88 11.0677 0
1 21.3 11.0677 0
1 22.01 9.83793 0
1 23.43 9.83793 0
1 24.14 11.0677 0
1 25.56 11.0677 0
1 26.27 9.83793 0
1 27.69 9.83793 0
1 28.4 11.0677 0
1 29.82 11.0677 0
1 30.53 9.83793 0
1 31.95 9.83793 0
1 32.66 11.0677 0
1 34.08 11.0677 0
1 34.79 9.83793 0
1 36.21 9.83793 0
1 36.92 11.0677 0
1 38.34 11.0677 0
1 39.05 9.83793 0
1 40.47 9.83793 0
1 41.18 11.0677 0
1 0 13.5272 0
1 0.709997 12.2974 0
1 2.13 12.2974 0
1 2.84 13.5272 0
1 4.26 13.5272 0
1 4.97 12.2974 0
1 6.39 12.2974 0
1 7.1 13.5272 0
1 8.52 13.5272 0
1 9.23 12.2974 0
1 10.65 12.2974 0
1 11.36 13.5272 0
1 12.78 13.5272 0
1 13.49 12.2974 0
1 14.91 12.2974 0
1 15.62 13.5272 0
1 17.04 13.5272 0
1 17.75 12.2974 0
1 19.17 12.2974 0
1 19.88 13.5272 0
1 21.3 13.5272 0
1 22.01 12.2974 0
1 23.43 12.2974 0
1 24.14 13.5272 0
1 25.56 13.5272 0
1 26.27 12.2974 0
1 27.69 12.2974 0
1 28.4 13.5272 0
1 29.82 13.5272 0
1 30.53 12.2974 0
1 31.95 12.2974 0
1 32.66 13.5272 0
1 34.08 13.5272 0
1 34.79 12.2974 0
1 36.21 12.2974 0
1 36.92 13.5272 0
1 38.34 13.5272 0
1 39.05 12.2974 0
1 40.47 12.2974 0
1 41.18 13.5272 0
1 0 15.9866 0
1 0.709997 14.7569 0
1 2.13 14.7569 0
1 2.84 15.9866 0
1 4.26 15.9866 0
1 4.97 14.7569 0
1 6.39 14.7569 0
1 7.1 15.9866 0
1 8.52 15.9866 0
1 9.23 14.7569 0
1 10.65 14.7569 0
1 11.36 15.9866 0
1 12.78 15.9866 0
1 13.49 14.7569 0
1 14.91 14.7569 0
1 15.62 15.9866 0
1 17.04 15.9866 0
1 17.75 14.7569 0
1 19.17 14.7569 0
1 19.88 15.9866 0
1 21.3 15.9866 0
1 22.01 14.7569 0
1 23.43 14.7569 0
1 24.14 15.9866 0
1 25.56 15.9866 0
1 26.27 14.7569 0
1 27.69 14.7569 0
1 28.4 15.9866 0
1 29.82 15.9866 0
1 30.53 14.7569 0
1 31.95 14.7569 0
1 32.66 15.9866 0
1 34.08 15.9866 0
1 34.79 14.7569 0
1 36.21 14.7569 0
1 36.92 15.9866 0
1 38.34 15.9866 0
1 39.05 14.7569 0
1 40.47 14.7569 0
1 41.18 15.9866 0
1 0 18.4461 0
1 0.709997 17.2164 0
1 2.13 17.2164 0
1 2.84 18.4461 0
1 4.26 18.4461 0
1 4.97 17.2164 0
1 6.39 17.2164 0
1 7.1 18.4461 0
1 8.52 18.4461 0
1 9.23 17.2164 0
1 10.65 17.2164 0
1 11.36 18.4461 0
1 12.78 18.4461 0
1 13.49 17.2164 0
1 14.91 17.2164 0
1 15.62 18.4461 0
1 17.04 18.4461 0
1 17.75 17.2164 0
1 19.17 17.2164 0
1 19.88 18.4461 0
1 21.3 18.4461 0
1 22.01 17.2164 0
1 23.43 17.2164 0
1 24.14 18.4461 0
1 25.56 18.4461 0
1 26.27 17.2164 0
1 27.69 17.2164 0
1 28.4 18.4461 0
1 29.82 18.4461 0
1 30.53 17.2164 0
1 31.95 17.2164 0
1 32.66 18.4461 0
1 34.08 18.4461 0
1 34.79 17.2164 0
1 36.21 17.2164 0
1 36.92 18.4461 0
1 38.34 18.4461 0
1 39.05 17.2164 0
1 40.47 17.2164 0
1 41.18 18.4461 0
1 0 20.9056 0
1 0.709997 19.6759 0
1 2.13 19.6759 0
1 2.84 20.9056 0
1 4.26 20.9056 0
1 4.97 19.6759 0
1 6.39 19.6759 0
1 7.1 20.9056 0
1 8.52 20.9056 0
1 9.23 19.6759 0
1 10.65 19.6759 0
1 11.36 20.9056 0
1 12.78 20.9056 0
1 13.49 19.6759 0
1 14.91 19.6759 0
1 15.62 20.9056 0
1 17.04 20.9056 0
1 17.75 19.6759 0
1 19.17 19.6759 0
1 19.88 20.9056 0
1 21.3 20.9056 0
1 22.01 19.6759 0
1 23.43 19.6759 0
1 24.14 20.9056 0
1 25.56 20.9056 0
1 26.27 19.6759 0
1 27.69 19.6759 0
1 28.4 20.9056 0
1 29.82 20.9056 0
1 30.53 19.6759 0
1 31.95 19.6759 0
1 32.66 20.9056 0
1 34.08 20.9056 0
1 34.79 19.6759 0
1 36.21 19.6759 0
1 36.92 20.9056 0
1 38.34 20.9056 0
1 39.05 19.6759 0
1 40.47 19.6759 0
1 41.18 20.9056 0
1 0 23.3651 0
1 0.709997 22.1353 0
1 2.13 22.1353 0
1 2.84 23.3651 0
1 4.26 23.3651 0
1 4.97 22.1353 0
1 6.39 22.1353 0
1 7.1 23.3651 0
1 8.52 23.3651 0
1 9.23 22.1353 0
1 10.65 22.1353 0
1 11.36 23.3651 0
1 12.78 23.3651 0
1 13.49 22.1353 0
1 14.91 22.1353 0
1 15.62 23.3651 0
1 17.04 23.3651 0
1 17.75 22.1353 0
1 19.17 22.1353 0
1 19.88 23.3651 0
1 21.3 23.3651 0
1 22.01 22.1353 0
1 23.43 22.1353 0
1 24.14 23.3651 0
1 25.56 23.3651 0
1 26.27 22.1353 0
1 27.69 22.1353 0
1 28.4 23.3651 0
1 29.82 23.3651 0
1 30.53 22.1353 0
1 31.95 22.1353 0
1 32.66 23.3651 0
1 34.08 23.3651 0
1 34.79 22.1353 0
1 36.21 22.1353 0
1 36.92 23.3651 0
1 38.34 23.3651 0
1 39.05 22.1353 0
1 40.47 22.1353 0
1 41.18 23.3651 0
400
Atoms. Timestep: 50000
1 -0.012888 1.24747 0
1 0.689705 0.0125299 0
1 2.12097 0.00424354 0
1 2.83205 1.24942 0
1 4.24385 1.2481 0
1 4.95618 0.0184016 0
1 6.37641 0.0174534 0
1 7.08124 1.24082 0
1 8.47892 1.25029 0
1 9.20818 0.0114206 0
1 10.6372 0.0133561 0
1 11.3491 1.21818 0
1 12.7758 1.2196 0
1 13.4958 -0.0109266 0
1 14.9283 -0.0093786 0
1 15.6265 1.21105 0
1 17.0585 1.21434 0
1 17.767 -0.0134302 0
1 19.1717 -0.00534369 0
1 19.8755 1.21764 0
1 21.3133 1.22587 0
1 22.028 -0.0101412 0
1 23.4453 0.0174402 0
1 24.1487 1.23351 0
1 25.5538 1.20586 0
1 26.2863 -0.00717185 0
1 27.7004 -0.00336501 0
1 28.4059 1.23988 0
1 29.8223 1.22221 0
1 30.5354 -0.00732755 0
1 31.9662 0.006008 0
1 32.6602 1.23335 0
1 34.0845 1.21673 0
1 34.7886 -0.0074137 0
1 36.2043 -0.00569975 0
1 36.9122 1.2126 0
1 38.3192 1.22458 0
1 39.0354 0.0121881 0
1 40.4615 -0.00713504 0
1 41.1552 1.21368 0
1 0.00667373 3.70452 0
1 0.688118 2.49138 0
1 2.12445 2.47058 0
1 2.83869 3.71626 0
1 4.24393 3.71625 0
1 4.9616 2.4824 0
1 6.36561 2.46461 0
1 7.08643 3.70775 0
1 8.51498 3.69453 0
1 9.22805 2.46579 0
1 10.6495 2.4583 0
1 11.3569 3.69579 0
1 12.7747 3.67691 0
1 13.4803 2.43293 0
1 14.9048 2.43926 0
1 15.629 3.6867 0
1 17.0415 3.6666 0
1 17.7656 2.45051 0
1 19.1808 2.45581 0
1 19.8905 3.68551 0
1 21.2936 3.66661 0
1 22.0101 2.45744 0
1 23.4233 2.45553 0
1 24.1333 3.68252 0
1 25.5579 3.67286 0
1 26.2789 2.44299 0
1 27.6854 2.45919 0
1 28.389 3.68429 0
1 29.8088 3.68465 0
1 30.5147 2.46471 0
1 31.9419 2.44948 0
1 32.6503 3.68099 0
1 34.0648 3.67815 0
1 34.782 2.46076 0
1 36.1966 2.45453 0
1 36.9152 3.66813 0
1 38.3331 3.68578 0
1 39.0464 2.46016 0
1 40.4566 2.44261 0
1 41.179 3.67227 0
1 -0.00839374 6.17365 0
1 0.687417 4.94666 0
1 2.12192 4.93843 0
1 2.83602 6.1602 0
1 4.25885 6.16793 0
1 4.95289 4.955 0
1 6.36913 4.93636 0
1 7.08436 6.16216 0
1 8.5003 6.14459 0
1 9.22122 4.92878 0
1 10.6514 4.92941 0
1 11.3496 6.14427 0
1 12.7846 6.12674 0
1 13.494 4.88579 0
1 14.8947 4.90445 0
1 15.6067 6.1254 0
1 17.0376 6.1283 0
1 17.7523 4.90912 0
1 19.1734 4.91785 0
1 19.8946 6.14763 0
1 21.3102 6.13534 0
1 22.0136 4.91045 0
1 23.4149 4.91982 0
1 24.1473 6.15148 0
1 25.5735 6.14018 0
1 26.2652 4.8965 0
1 27.6894 4.91413 0
1 28.3952 6.13923 0
1 29.8132 6.14542 0
1 30.5112 4.90769 0
1 31.9368 4.9096 0
1 32.658 6.15088 0
1 34.0745 6.13924 0
1 34.7725 4.89873 0
1 36.2028 4.90136 0
1 36.9188 6.14329 0
1 38.3428 6.14771 0
1 39.0543 4.91342 0
1 40.4724 4.92469 0
1 41.1715 6.16229 0
1 0.0138923 8.62701 0
1 0.707899 7.3989 0
1 2.12722 7.39355 0
1 2.83035 8.62338 0
1 4.26185 8.62461 0
1 4.9648 7.39523 0
1 6.37248 7.37559 0
1 7.09821 8.6003 0
1 8.52243 8.61015 0
1 9.21725 7.38727 0
1 10.6547 7.37132 0
1 11.3491 8.6138 0
1 12.7811 8.61539 0
1 13.4724 7.38039 0
1 14.9181 7.35701 0
1 15.616 8.60118 0
1 17.0375 8.59148 0
1 17.7376 7.37203 0
1 19.1629 7.37667 0
1 19.8851 8.60796 0
1 21.295 8.62051 0
1 22.0037 7.38318 0
1 23.4199 7.38725 0
1 24.1458 8.61283 0
1 25.5739 8.61684 0
1 26.2801 7.37644 0
1 27.6879 7.38485 0
1 28.4034 8.6074 0
1 29.8265 8.60989 0
1 30.5233 7.36214 0
1 31.9413 7.37957 0
1 32.6416 8.59142 0
1 34.0537 8.59568 0
1 34.7874 7.37572 0
1 36.2026 7.3583 0
1 36.9103 8.60614 0
1 38.3351 8.61484 0
1 39.0583 7.36835 0
1 40.4635 7.39576 0
1 41.1907 8.61922 0
1 0.00524886 11.0838 0
1 0.715045 9.87412 0
1 2.1361 9.87061 0
1 2.84979 11.0966 0
1 4.26942 11.0756 0
1 4.96604 9.83456 0
1 6.385 9.85975 0
1 7.11198 11.067 0
1 8.53189 11.0868 0
1 9.23563 9.85002 0
1 10.6418 9.85741 0
1 11.3366 11.0778 0
1 12.7544 11.078 0
1 13.4817 9.84184 0
1 14.9 9.83304 0
1 15.6136 11.0652 0
1 17.0302 11.06 0
1 17.7655 9.82207 0
1 19.1776 9.83496 0
1 19.8884 11.0797 0
1 21.3169 11.0506 0
1 22.0251 9.83561 0
1 23.4553 9.83644 0
1 24.1616 11.0752 0
1 25.5833 11.0783 0
1 26.286 9.83953 0
1 27.7048 9.83812 0
1 28.3992 11.0784 0
1 29.8322 11.0544 0
1 30.5436 9.81625 0
1 31.9647 9.83903 0
1 32.666 11.066 0
1 34.0824 11.0572 0
1 34.7899 9.82754 0
1 36.2078 9.83465 0
1 36.9323 11.0548 0
1 38.3496 11.0568 0
1 39.0604 9.81467 0
1 40.4637 9.83033 0
1 41.1835 11.0568 0
1 0.00794966 13.5415 0
1 0.703937 12.3129 0
1 2.117 12.3239 0
1 2.82404 13.5511 0
1 4.26731 13.5471 0
1 4.98686 12.308 0
1 6.40902 12.289 0
1 7.08119 13.5303 0
1 8.51558 13.525 0
1 9.24124 12.3083 0
1 10.6402 12.3134 0
1 11.3619 13.5443 0
1 12.7518 13.5365 0
1 13.4747 12.3053 0
1 14.9036 12.3064 0
1 15.6163 13.5248 0
1 17.043 13.5257 0
1 17.7437 12.2787 0
1 19.1709 12.3092 0
1 19.8784 13.5165 0
1 21.2909 13.5274 0
1 22.0217 12.2808 0
1 23.4481 12.2922 0
1 24.1548 13.5352 0
1 25.5686 13.5512 0
1 26.2773 12.302 0
1 27.6902 12.3068 0
1 28.3899 13.5251 0
1 29.8062 13.5139 0
1 30.5206 12.2975 0
1 31.9322 12.2924 0
1 32.6509 13.5283 0
1 34.0805 13.5523 0
1 34.7818 12.2852 0
1 36.2201 12.3011 0
1 36.931 13.5303 0
1 38.3484 13.5239 0
1 39.0596 12.2875 0
1 40.4833 12.294 0
1 41.1795 13.5302 0
1 -0.00731095 16.006 0
1 0.702072 14.7625 0
1 2.12801 14.7664 0
1 2.83252 15.9987 0
1 4.24318 15.9848 0
1 4.96349 14.763 0
1 6.39131 14.7456 0
1 7.10215 15.9782 0
1 8.52381 15.9811 0
1 9.252 14.7657 0
1 10.6616 14.7712 0
1 11.3659 15.9915 0
1 12.7825 16.0019 0
1 13.4928 14.7652 0
1 14.9176 14.7619 0
1 15.6189 15.9959 0
1 17.0284 15.9688 0
1 17.7547 14.7466 0
1 19.1794 14.753 0
1 19.9048 15.9587 0
1 21.3066 15.9857 0
1 22.0052 14.756 0
1 23.4254 14.7676 0
1 24.156 15.9847 0
1 25.5606 16.0031 0
1 26.2767 14.7907 0
1 27.6851 14.7432 0
1 28.4056 15.9935 0
1 29.8243 15.9808 0
1 30.5248 14.7513 0
1 31.9494 14.7685 0
1 32.6553 15.9855 0
1 34.0773 16.0006 0
1 34.8 14.7754 0
1 36.2082 14.7618 0
1 36.9288 15.9722 0
1 38.3329 15.9975 0
1 39.0359 14.7682 0
1 40.4614 14.7509 0
1 41.1726 15.9876 0
1 -0.000837961 18.4483 0
1 0.705952 17.201 0
1 2.12453 17.2217 0
1 2.83633 18.4622 0
1 4.26666 18.4222 0
1 4.98241 17.1935 0
1 6.40273 17.2176 0
1 7.1157 18.4469 0
1 8.53209 18.4447 0
1 9.23971 17.2141 0
1 10.6556 17.2327 0
1 11.3728 18.4564 0
1 12.7965 18.4416 0
1 13.4818 17.2176 0
1 14.9043 17.2117 0
1 15.6318 18.4275 0
1 17.0488 18.4248 0
1 17.7584 17.1894 0
1 19.1761 17.1844 0
1 19.9103 18.4064 0
1 21.3198 18.4455 0
1 22.0335 17.2102 0
1 23.4371 17.222 0
1 24.1438 18.4438 0
1 25.5593 18.4367 0
1 26.2776 17.2223 0
1 27.698 17.2176 0
1 28.4117 18.4512 0
1 29.8212 18.4306 0
1 30.5425 17.201 0
1 31.9516 17.2113 0
1 32.6678 18.4401 0
1 34.0832 18.4529 0
1 34.8053 17.2259 0
1 36.2114 17.2038 0
1 36.9241 18.4675 0
1 38.3424 18.4705 0
1 39.0393 17.218 0
1 40.4728 17.2186 0
1 41.1725 18.4384 0
1 -0.000737488 20.9074 0
1 0.714375 19.6735 0
1 2.14655 19.6927 0
1 2.8503 20.9074 0
1 4.25967 20.8966 0
1 4.96834 19.6731 0
1 6.38383 19.6627 0
1 7.07805 20.9156 0
1 8.50903 20.9207 0
1 9.23906 19.6845 0
1 10.6503 19.6996 0
1 11.378 20.9182 0
1 12.7809 20.9041 0
1 13.5 19.681 0
1 14.9123 19.6621 0
1 15.622 20.8871 0
1 17.0424 20.8753 0
1 17.754 19.6414 0
1 19.1854 19.6354 0
1 19.8779 20.8902 0
1 21.3079 20.8966 0
1 22.0294 19.6771 0
1 23.4366 19.6829 0
1 24.1419 20.9079 0
1 25.5788 20.9046 0
1 26.2663 19.6727 0
1 27.6965 19.6653 0
1 28.4064 20.9045 0
1 29.808 20.914 0
1 30.523 19.6769 0
1 31.9632 19.6643 0
1 32.6662 20.9063 0
1 34.0999 20.9177 0
1 34.8011 19.6848 0
1 36.2228 19.6847 0
1 36.9442 20.9213 0
1 38.3433 20.9148 0
1 39.0603 19.6884 0
1 40.4639 19.6795 0
1 41.1792 20.8976 0
1 0.00385639 23.3569 0
1 0.706918 22.1343 0
1 2.12339 22.135 0
1 2.82337 23.378 0
1 4.24552 23.3652 0
1 4.95363 22.1367 0
1 6.38127 22.1488 0
1 7.07683 23.3895 0
1 8.49869 23.3662 0
1 9.21458 22.1304 0
1 10.639 22.1479 0
1 11.3458 23.3761 0
1 12.7815 23.3613 0
1 13.4801 22.1295 0
1 14.9106 22.1147 0
1 15.6402 23.3483 0
1 17.0445 23.3512 0
1 17.7688 22.1135 0
1 19.1655 22.1286 0
1 19.8766 23.372 0
1 21.3048 23.3543 0
1 22.0021 22.1298 0
1 23.4284 22.1487 0
1 24.1586 23.3791 0
1 25.5729 23.3565 0
1 26.2896 22.1307 0
1 27.7238 22.1295 0
1 28.419 23.3663 0
1 29.8384 23.3648 0
1 30.5342 22.131 0
1 31.9591 22.1209 0
1 32.6456 23.3545 0
1 34.0655 23.3583 0
1 34.7807 22.1412 0
1 36.2117 22.1507 0
1 36.9189 23.3823 0
1 38.342 23.3669 0
1 39.0587 22.1314 0
1 40.4752 22.1315 0
1 41.1748 23.3511 0
400
Atoms. Timestep: 100000
1 -0.0184049 1.22669 0
1 0.70212 -0.00199843 0
1 2.12606 -0.0100946 0
1 2.85139 1.22196 0
1 4.2715 1.22148 0
1 4.97819 0.011017 0
1 6.37188 -0.0137367 0
1 7.10563 1.21634 0
1 8.50797 1.2306 0
1 9.22034 -0.000387435 0
1 10.6384 0.0175874 0
1 11.3737 1.22788 0
1 12.7902 1.23578 0
1 13.5045 -0.00243871 0
1 14.9147 0.00680156 0
1 15.644 1.22574 0
1 17.0443 1.2335 0
1 17.7625 0.00924659 0
1 19.1926 0.00782338 0
1 19.895 1.23506 0
1 21.303 1.24398 0
1 22.0271 0.016756 0
1 23.4384 0.00938128 0
1 24.1683 1.22756 0
1 25.5782 1.22857 0
1 26.2708 -0.0136483 0
1 27.6836 0.000706942 0
1 28.4157 1.22066 0
1 29.8183 1.21067 0
1 30.5419 -0.00651774 0
1 31.9602 0.0134453 0
1 32.6761 1.24373 0
1 34.1099 1.25016 0
1 34.8031 0.00429773 0
1 36.2276 0.0267364 0
1 36.9147 1.25007 0
1 38.3427 1.26537 0
1 39.0364 0.0243754 0
1 40.453 -0.0151326 0
1 41.1603 1.21559 0
1 0.0109336 3.67236 0
1 0.723859 2.45062 0
1 2.12646 2.4632 0
1 2.81949 3.67801 0
1 4.25357 3.68653 0
1 4.96267 2.45821 0
1 6.39848 2.45177 0
1 7.1006 3.67936 0
1 8.51324 3.68763 0
1 9.22597 2.44763 0
1 10.6583 2.46471 0
1 11.3832 3.68857 0
1 12.8087 3.6675 0
1 13.5067 2.44424 0
1 14.9228 2.4508 0
1 15.6513 3.66768 0
1 17.0768 3.68044 0
1 17.774 2.44136 0
1 19.1939 2.47197 0
1 19.8972 3.70525 0
1 21.3072 3.69598 0
1 22.0252 2.47059 0
1 23.4477 2.45942 0
1 24.1488 3.69987 0
1 25.5635 3.69188 0
1 26.2689 2.44545 0
1 27.7012 2.47034 0
1 28.4284 3.69018 0
1 29.8317 3.69418 0
1 30.5693 2.45357 0
1 31.9809 2.46383 0
1 32.6806 3.7058 0
1 34.103 3.7211 0
1 34.8174 2.48768 0
1 36.2178 2.4706 0
1 36.9101 3.7076 0
1 38.3319 3.71426 0
1 39.032 2.48172 0
1 40.4609 2.44457 0
1 41.175 3.6762 0
1 -0.0223936 6.14219 0
1 0.686555 4.91237 0
1 2.11888 4.8966 0
1 2.82327 6.11977 0
1 4.22685 6.13524 0
1 4.96192 4.91972 0
1 6.39312 4.91242 0
1 7.07204 6.14431 0
1 8.48759 6.12629 0
1 9.23277 4.90429 0
1 10.6598 4.89442 0
1 11.3754 6.11686 0
1 12.7937 6.13676 0
1 13.5218 4.89922 0
1 14.9477 4.90699 0
1 15.6374 6.14021 0
1 17.0514 6.15506 0
1 17.7601 4.91436 0
1 19.1702 4.93371 0
1 19.876 6.17794 0
1 21.2991 6.15491 0
1 22.0273 4.92746 0
1 23.4472 4.92559 0
1 24.1459 6.166 0
1 25.5665 6.13679 0
1 26.2897 4.90195 0
1 27.7202 4.92668 0
1 28.4204 6.16212 0
1 29.8314 6.14948 0
1 30.5503 4.91844 0
1 31.9777 4.94381 0
1 32.6762 6.17351 0
1 34.0975 6.17534 0
1 34.8204 4.96107 0
1 36.2268 4.97001 0
1 36.9219 6.19094 0
1 38.3327 6.17238 0
1 39.033 4.92738 0
1 40.4499 4.89932 0
1 41.1473 6.13165 0
1 -0.00302694 8.57157 0
1 0.686741 7.33525 0
1 2.10017 7.35257 0
1 2.80625 8.5733 0
1 4.24157 8.58788 0
1 4.97319 7.37183 0
1 6.39206 7.38896 0
1 7.09176 8.61166 0
1 8.52578 8.60047 0
1 9.22184 7.35497 0
1 10.6516 7.35428 0
1 11.3684 8.60197 0
1 12.8002 8.61097 0
1 13.4783 7.3594 0
1 14.9036 7.36412 0
1 15.616 8.6039 0
1 17.0224 8.6111 0
1 17.744 7.3837 0
1 19.16 7.39758 0
1 19.87 8.60731 0
1 21.2924 8.62851 0
1 22.003 7.39219 0
1 23.4374 7.37693 0
1 24.1582 8.59961 0
1 25.5787 8.5847 0
1 26.2801 7.36471 0
1 27.6968 7.38984 0
1 28.416 8.60787 0
1 29.8355 8.61796 0
1 30.542 7.38537 0
1 31.9547 7.39876 0
1 32.6554 8.6263 0
1 34.0712 8.6235 0
1 34.7983 7.41048 0
1 36.2153 7.40404 0
1 36.907 8.62756 0
1 38.3379 8.60744 0
1 39.039 7.39302 0
1 40.4777 7.36648 0
1 41.1785 8.59569 0
1 -0.0132848 11.0678 0
1 0.683268 9.83955 0
1 2.11266 9.81488 0
1 2.81728 11.0647 0
1 4.24596 11.0759 0
1 4.95178 9.83664 0
1 6.37885 9.83009 0
1 7.08077 11.0511 0
1 8.50099 11.0516 0
1 9.23859 9.81263 0
1 10.6614 9.82718 0
1 11.3458 11.0612 0
1 12.7716 11.0612 0
1 13.4798 9.82917 0
1 14.9079 9.84252 0
1 15.6266 11.0615 0
1 17.046 11.0568 0
1 17.7759 9.8472 0
1 19.1852 9.84943 0
1 19.901 11.0707 0
1 21.317 11.0692 0
1 22.0206 9.82606 0
1 23.4375 9.82777 0
1 24.1397 11.0514 0
1 25.5598 11.053 0
1 26.2678 9.80776 0
1 27.6957 9.81424 0
1 28.3987 11.0462 0
1 29.8163 11.0515 0
1 30.5459 9.84228 0
1 31.9546 9.82952 0
1 32.6705 11.0593 0
1 34.0735 11.051 0
1 34.794 9.83966 0
1 36.2168 9.85157 0
1 36.9286 11.0864 0
1 38.3403 11.0636 0
1 39.0493 9.84845 0
1 40.4752 9.84264 0
1 41.1659 11.0825 0
1 -0.00961998 13.5314 0
1 0.675804 12.3029 0
1 2.10294 12.2954 0
1 2.80731 13.5326 0
1 4.23125 13.5394 0
1 4.94931 12.2991 0
1 6.37221 12.3105 0
1 7.07782 13.542 0
1 8.51104 13.5075 0
1 9.22612 12.2689 0
1 10.6459 12.2836 0
1 11.3593 13.511 0
1 12.775 13.4995 0
1 13.5101 12.2952 0
1 14.9239 12.2934 0
1 15.636 13.5244 0
1 17.0486 13.5232 0
1 17.7676 12.2897 0
1 19.1918 12.3087 0
1 19.9038 13.5255 0
1 21.3114 13.5192 0
1 22.0101 12.3097 0
1 23.4138 12.28 0
1 24.1254 13.517 0
1 25.5439 13.5225 0
1 26.2706 12.2872 0
1 27.694 12.2681 0
1 28.395 13.5083 0
1 29.8134 13.5248 0
1 30.5222 12.2846 0
1 31.9447 12.2847 0
1 32.6533 13.5351 0
1 34.0765 13.516 0
1 34.7759 12.2822 0
1 36.2116 12.2922 0
1 36.9005 13.5178 0
1 38.3245 13.5248 0
1 39.0449 12.3 0
1 40.4614 12.3238 0
1 41.1745 13.5351 0
1 -0.022439 15.9915 0
1 0.679094 14.7708 0
1 2.0899 14.7565 0
1 2.80823 15.9778 0
1 4.24268 15.9846 0
1 4.94882 14.7593 0
1 6.36436 14.7705 0
1 7.10565 15.9835 0
1 8.52464 15.9884 0
1 9.22332 14.7517 0
1 10.638 14.7394 0
1 11.3457 15.9724 0
1 12.758 15.9661 0
1 13.5108 14.7328 0
1 14.92 14.7455 0
1 15.6136 15.9831 0
1 17.0489 15.9804 0
1 17.7732 14.7612 0
1 19.2034 14.7627 0
1 19.886 16.0056 0
1 21.3201 15.9884 0
1 22.0059 14.767 0
1 23.4208 14.7442 0
1 24.1239 15.9843 0
1 25.5613 15.9825 0
1 26.2613 14.7545 0
1 27.6895 14.7265 0
1 28.3865 15.9692 0
1 29.8156 15.9766 0
1 30.533 14.7578 0
1 31.9535 14.7547 0
1 32.6724 15.97 0
1 34.1104 15.9723 0
1 34.7923 14.7411 0
1 36.2062 14.7662 0
1 36.91 15.9953 0
1 38.3115 16.0066 0
1 39.0062 14.7557 0
1 40.4417 14.7554 0
1 41.1542 16.0119 0
1 -0.0137756 18.4576 0
1 0.688223 17.2271 0
1 2.11855 17.2147 0
1 2.83458 18.4314 0
1 4.26875 18.4439 0
1 4.9654 17.2134 0
1 6.38661 17.2191 0
1 7.09039 18.4541 0
1 8.51198 18.439 0
1 9.23278 17.21 0
1 10.6515 17.2318 0
1 11.3556 18.4533 0
1 12.7692 18.4372 0
1 13.4726 17.2012 0
1 14.8998 17.226 0
1 15.6143 18.4526 0
1 17.0319 18.4527 0
1 17.7386 17.2176 0
1 19.1659 17.2249 0
1 19.8864 18.4527 0
1 21.3033 18.4593 0
1 22.0207 17.2278 0
1 23.4338 17.2322 0
1 24.1519 18.443 0
1 25.5791 18.4587 0
1 26.2965 17.2228 0
1 27.708 17.1964 0
1 28.4213 18.4153 0
1 29.8188 18.4317 0
1 30.5534 17.2069 0
1 31.9595 17.2066 0
1 32.664 18.4523 0
1 34.0824 18.4499 0
1 34.8044 17.2198 0
1 36.2107 17.2113 0
1 36.8999 18.4398 0
1 38.3077 18.45 0
1 39.0318 17.2343 0
1 40.4401 17.2501 0
1 41.1686 18.4732 0
1 -0.00803103 20.9176 0
1 0.717803 19.6809 0
1 2.12871 19.6706 0
1 2.83866 20.9019 0
1 4.25827 20.9047 0
1 4.96539 19.675 0
1 6.3815 19.6739 0
1 7.09113 20.9003 0
1 8.52791 20.9135 0
1 9.22333 19.666 0
1 10.6541 19.6904 0
1 11.3678 20.9041 0
1 12.7763 20.916 0
1 13.4828 19.677 0
1 14.8902 19.665 0
1 15.6135 20.9103 0
1 17.018 20.9086 0
1 17.743 19.6796 0
1 19.1595 19.6877 0
1 19.8954 20.9183 0
1 21.299 20.8911 0
1 22.0122 19.6727 0
1 23.4241 19.6714 0
1 24.1505 20.8927 0
1 25.5875 20.918 0
1 26.2922 19.6861 0
1 27.6956 19.6543 0
1 28.396 20.9093 0
1 29.8148 20.9052 0
1 30.5169 19.6883 0
1 31.9258 19.6693 0
1 32.6645 20.9058 0
1 34.0984 20.9141 0
1 34.7939 19.684 0
1 36.2098 19.6728 0
1 36.918 20.92 0
1 38.3276 20.9344 0
1 39.031 19.6878 0
1 40.4745 19.6966 0
1 41.1708 20.9203 0
1 -0.007026 23.3708 0
1 0.703291 22.1346 0
1 2.1162 22.1346 0
1 2.84107 23.3411 0
1 4.24615 23.358 0
1 4.96694 22.1299 0
1 6.39343 22.1182 0
1 7.09177 23.3522 0
1 8.51465 23.3639 0
1 9.22412 22.141 0
1 10.6651 22.1439 0
1 11.3522 23.3702 0
1 12.7692 23.368 0
1 13.4792 22.1357 0
1 14.8957 22.1409 0
1 15.6227 23.375 0
1 17.0356 23.3753 0
1 17.7488 22.1393 0
1 19.174 22.1547 0
1 19.8967 23.3743 0
1 21.3295 23.3607 0
1 22.035 22.1235 0
1 23.4353 22.1234 0
1 24.1335 23.3597 0
1 25.5479 23.3712 0
1 26.2727 22.1447 0
1 27.6862 22.1418 0
1 28.4047 23.3495 0
1 29.8245 23.3719 0
1 30.5238 22.138 0
1 31.9688 22.1483 0
1 32.67 23.3794 0
1 34.0789 23.3837 0
1 34.8025 22.1551 0
1 36.2062 22.1517 0
1 36.9164 23.3822 0
1 38.3432 23.3894 0
1 39.0422 22.159 0
1 40.4545 22.1466 0
1 41.1637 23.3738 0
