        
        
        6400 atoms 
           2 atom types 
         
    0.000000E+00      213.600000 xlo xhi 
    0.000000E+00      123.322000 ylo yhi 
   -5.000000E-01    5.000000E-01 zlo zhi 
        
Atoms   
        
           1 1         5.340000        4.624576    0.000000E+00
           2 1        10.680000        4.624576    0.000000E+00
           3 1        16.020000        4.624576    0.000000E+00
           4 1        21.360000        4.624576    0.000000E+00
           5 1        26.700000        4.624576    0.000000E+00
           6 1        32.040000        4.624576    0.000000E+00
           7 1        37.380000        4.624576    0.000000E+00
           8 1        42.720000        4.624576    0.000000E+00
           9 1        48.060000        4.624576    0.000000E+00
          10 1        53.400000        4.624576    0.000000E+00
          11 1        58.740000        4.624576    0.000000E+00
          12 1        64.080000        4.624576    0.000000E+00
          13 1        69.420000        4.624576    0.000000E+00
          14 1        74.760000        4.624576    0.000000E+00
          15 1        80.100000        4.624576    0.000000E+00
          16 1        85.440000        4.624576    0.000000E+00
          17 1        90.780000        4.624576    0.000000E+00
          18 1        96.120000        4.624576    0.000000E+00
          19 1       101.460000        4.624576    0.000000E+00
          20 1       106.800000        4.624576    0.000000E+00
          21 1       112.140000        4.624576    0.000000E+00
          22 1       117.480000        4.624576    0.000000E+00
          23 1       122.820000        4.624576    0.000000E+00
          24 1       128.160000        4.624576    0.000000E+00
          25 1       133.500000        4.624576    0.000000E+00
          26 1       138.840000        4.624576    0.000000E+00
          27 1       144.180000        4.624576    0.000000E+00
          28 1       149.520000        4.624576    0.000000E+00
          29 1       154.860000        4.624576    0.000000E+00
          30 1       160.200000        4.624576    0.000000E+00
          31 1       165.540000        4.624576    0.000000E+00
          32 1       170.880000        4.624576    0.000000E+00
          33 1       176.220000        4.624576    0.000000E+00
          34 1       181.560000        4.624576    0.000000E+00
          35 1       186.900000        4.624576    0.000000E+00
          36 1       192.240000        4.624576    0.000000E+00
          37 1       197.580000        4.624576    0.000000E+00
          38 1       202.920000        4.624576    0.000000E+00
          39 1       208.260000        4.624576    0.000000E+00
          40 1       213.600000        4.624576    0.000000E+00
          41 1         5.340000        7.707626    0.000000E+00
          42 1        10.680000        7.707626    0.000000E+00
          43 1        16.020000        7.707626    0.000000E+00
          44 1        21.360000        7.707626    0.000000E+00
          45 1        26.700000        7.707626    0.000000E+00
          46 1        32.040000        7.707626    0.000000E+00
          47 1        37.380000        7.707626    0.000000E+00
          48 1        42.720000        7.707626    0.000000E+00
          49 1        48.060000        7.707626    0.000000E+00
          50 1        53.400000        7.707626    0.000000E+00
          51 1        58.740000        7.707626    0.000000E+00
          52 1        64.080000        7.707626    0.000000E+00
          53 1        69.420000        7.707626    0.000000E+00
          54 1        74.760000        7.707626    0.000000E+00
          55 1        80.100000        7.707626    0.000000E+00
          56 1        85.440000        7.707626    0.000000E+00
          57 1        90.780000        7.707626    0.000000E+00
          58 1        96.120000        7.707626    0.000000E+00
          59 1       101.460000        7.707626    0.000000E+00
          60 1       106.800000        7.707626    0.000000E+00
          61 1       112.140000        7.707626    0.000000E+00
          62 1       117.480000        7.707626    0.000000E+00
          63 1       122.820000        7.707626    0.000000E+00
          64 1       128.160000        7.707626    0.000000E+00
          65 1       133.500000        7.707626    0.000000E+00
          66 1       138.840000        7.707626    0.000000E+00
          67 1       144.180000        7.707626    0.000000E+00
          68 1       149.520000        7.707626    0.000000E+00
          69 1       154.860000        7.707626    0.000000E+00
          70 1       160.200000        7.707626    0.000000E+00
          71 1       165.540000        7.707626    0.000000E+00
          72 1       170.880000        7.707626    0.000000E+00
          73 1       176.220000        7.707626    0.000000E+00
          74 1       181.560000        7.707626    0.000000E+00
          75 1       186.900000        7.707626    0.000000E+00
          76 1       192.240000        7.707626    0.000000E+00
          77 1       197.580000        7.707626    0.000000E+00
          78 1       202.920000        7.707626    0.000000E+00
          79 1       208.260000        7.707626    0.000000E+00
          80 1       213.600000        7.707626    0.000000E+00
          81 1         5.340000       10.790680    0.000000E+00
          82 1        10.680000       10.790680    0.000000E+00
          83 1        16.020000       10.790680    0.000000E+00
          84 1        21.360000       10.790680    0.000000E+00
          85 1        26.700000       10.790680    0.000000E+00
          86 1        32.040000       10.790680    0.000000E+00
          87 1        37.380000       10.790680    0.000000E+00
          88 1        42.720000       10.790680    0.000000E+00
          89 1        48.060000       10.790680    0.000000E+00
          90 1        53.400000       10.790680    0.000000E+00
          91 1        58.740000       10.790680    0.000000E+00
          92 1        64.080000       10.790680    0.000000E+00
          93 1        69.420000       10.790680    0.000000E+00
          94 1        74.760000       10.790680    0.000000E+00
          95 1        80.100000       10.790680    0.000000E+00
          96 1        85.440000       10.790680    0.000000E+00
          97 1        90.780000       10.790680    0.000000E+00
          98 1        96.120000       10.790680    0.000000E+00
          99 1       101.460000       10.790680    0.000000E+00
         100 1       106.800000       10.790680    0.000000E+00
         101 1       112.140000       10.790680    0.000000E+00
         102 1       117.480000       10.790680    0.000000E+00
         103 1       122.820000       10.790680    0.000000E+00
         104 1       128.160000       10.790680    0.000000E+00
         105 1       133.500000       10.790680    0.000000E+00
         106 1       138.840000       10.790680    0.000000E+00
         107 1       144.180000       10.790680    0.000000E+00
         108 1       149.520000       10.790680    0.000000E+00
         109 1       154.860000       10.790680    0.000000E+00
         110 1       160.200000       10.790680    0.000000E+00
         111 1       165.540000       10.790680    0.000000E+00
         112 1       170.880000       10.790680    0.000000E+00
         113 1       176.220000       10.790680    0.000000E+00
         114 1       181.560000       10.790680    0.000000E+00
         115 1       186.900000       10.790680    0.000000E+00
         116 1       192.240000       10.790680    0.000000E+00
         117 1       197.580000       10.790680    0.000000E+00
         118 1       202.920000       10.790680    0.000000E+00
         119 1       208.260000       10.790680    0.000000E+00
         120 1       213.600000       10.790680    0.000000E+00
         121 1         5.340000       13.873730    0.000000E+00
         122 1        10.680000       13.873730    0.000000E+00
         123 1        16.020000       13.873730    0.000000E+00
         124 1        21.360000       13.873730    0.000000E+00
         125 1        26.700000       13.873730    0.000000E+00
         126 1        32.040000       13.873730    0.000000E+00
         127 1        37.380000       13.873730    0.000000E+00
         128 1        42.720000       13.873730    0.000000E+00
         129 1        48.060000       13.873730    0.000000E+00
         130 1        53.400000       13.873730    0.000000E+00
         131 1        58.740000       13.873730    0.000000E+00
         132 1        64.080000       13.873730    0.000000E+00
         133 1        69.420000       13.873730    0.000000E+00
         134 1        74.760000       13.873730    0.000000E+00
         135 1        80.100000       13.873730    0.000000E+00
         136 1        85.440000       13.873730    0.000000E+00
         137 1        90.780000       13.873730    0.000000E+00
         138 1        96.120000       13.873730    0.000000E+00
         139 1       101.460000       13.873730    0.000000E+00
         140 1       106.800000       13.873730    0.000000E+00
         141 1       112.140000       13.873730    0.000000E+00
         142 1       117.480000       13.873730    0.000000E+00
         143 1       122.820000       13.873730    0.000000E+00
         144 1       128.160000       13.873730    0.000000E+00
         145 1       133.500000       13.873730    0.000000E+00
         146 1       138.840000       13.873730    0.000000E+00
         147 1       144.180000       13.873730    0.000000E+00
         148 1       149.520000       13.873730    0.000000E+00
         149 1       154.860000       13.873730    0.000000E+00
         150 1       160.200000       13.873730    0.000000E+00
         151 1       165.540000       13.873730    0.000000E+00
         152 1       170.880000       13.873730    0.000000E+00
         153 1       176.220000       13.873730    0.000000E+00
         154 1       181.560000       13.873730    0.000000E+00
         155 1       186.900000       13.873730    0.000000E+00
         156 1       192.240000       13.873730    0.000000E+00
         157 1       197.580000       13.873730    0.000000E+00
         158 1       202.920000       13.873730    0.000000E+00
         159 1       208.260000       13.873730    0.000000E+00
         160 1       213.600000       13.873730    0.000000E+00
         161 1         5.340000       16.956780    0.000000E+00
         162 1        10.680000       16.956780    0.000000E+00
         163 1        16.020000       16.956780    0.000000E+00
         164 1        21.360000       16.956780    0.000000E+00
         165 1        26.700000       16.956780    0.000000E+00
         166 1        32.040000       16.956780    0.000000E+00
         167 1        37.380000       16.956780    0.000000E+00
         168 1        42.720000       16.956780    0.000000E+00
         169 1        48.060000       16.956780    0.000000E+00
         170 1        53.400000       16.956780    0.000000E+00
         171 1        58.740000       16.956780    0.000000E+00
         172 1        64.080000       16.956780    0.000000E+00
         173 1        69.420000       16.956780    0.000000E+00
         174 1        74.760000       16.956780    0.000000E+00
         175 1        80.100000       16.956780    0.000000E+00
         176 1        85.440000       16.956780    0.000000E+00
         177 1        90.780000       16.956780    0.000000E+00
         178 1        96.120000       16.956780    0.000000E+00
         179 1       101.460000       16.956780    0.000000E+00
         180 1       106.800000       16.956780    0.000000E+00
         181 1       112.140000       16.956780    0.000000E+00
         182 1       117.480000       16.956780    0.000000E+00
         183 1       122.820000       16.956780    0.000000E+00
         184 1       128.160000       16.956780    0.000000E+00
         185 1       133.500000       16.956780    0.000000E+00
         186 1       138.840000       16.956780    0.000000E+00
         187 1       144.180000       16.956780    0.000000E+00
         188 1       149.520000       16.956780    0.000000E+00
         189 1       154.860000       16.956780    0.000000E+00
         190 1       160.200000       16.956780    0.000000E+00
         191 1       165.540000       16.956780    0.000000E+00
         192 1       170.880000       16.956780    0.000000E+00
         193 1       176.220000       16.956780    0.000000E+00
         194 1       181.560000       16.956780    0.000000E+00
         195 1       186.900000       16.956780    0.000000E+00
         196 1       192.240000       16.956780    0.000000E+00
         197 1       197.580000       16.956780    0.000000E+00
         198 1       202.920000       16.956780    0.000000E+00
         199 1       208.260000       16.956780    0.000000E+00
         200 1       213.600000       16.956780    0.000000E+00
         201 1         5.340000       20.039830    0.000000E+00
         202 1        10.680000       20.039830    0.000000E+00
         203 1        16.020000       20.039830    0.000000E+00
         204 1        21.360000       20.039830    0.000000E+00
         205 1        26.700000       20.039830    0.000000E+00
         206 1        32.040000       20.039830    0.000000E+00
         207 1        37.380000       20.039830    0.000000E+00
         208 1        42.720000       20.039830    0.000000E+00
         209 1        48.060000       20.039830    0.000000E+00
         210 1        53.400000       20.039830    0.000000E+00
         211 1        58.740000       20.039830    0.000000E+00
         212 1        64.080000       20.039830    0.000000E+00
         213 1        69.420000       20.039830    0.000000E+00
         214 1        74.760000       20.039830    0.000000E+00
         215 1        80.100000       20.039830    0.000000E+00
         216 1        85.440000       20.039830    0.000000E+00
         217 1        90.780000       20.039830    0.000000E+00
         218 1        96.120000       20.039830    0.000000E+00
         219 1       101.460000       20.039830    0.000000E+00
         220 1       106.800000       20.039830    0.000000E+00
         221 1       112.140000       20.039830    0.000000E+00
         222 1       117.480000       20.039830    0.000000E+00
         223 1       122.820000       20.039830    0.000000E+00
         224 1       128.160000       20.039830    0.000000E+00
         225 1       133.500000       20.039830    0.000000E+00
         226 1       138.840000       20.039830    0.000000E+00
         227 1       144.180000       20.039830    0.000000E+00
         228 1       149.520000       20.039830    0.000000E+00
         229 1       154.860000       20.039830    0.000000E+00
         230 1       160.200000       20.039830    0.000000E+00
         231 1       165.540000       20.039830    0.000000E+00
         232 1       170.880000       20.039830    0.000000E+00
         233 1       176.220000       20.039830    0.000000E+00
         234 1       181.560000       20.039830    0.000000E+00
         235 1       186.900000       20.039830    0.000000E+00
         236 1       192.240000       20.039830    0.000000E+00
         237 1       197.580000       20.039830    0.000000E+00
         238 1       202.920000       20.039830    0.000000E+00
         239 1       208.260000       20.039830    0.000000E+00
         240 1       213.600000       20.039830    0.000000E+00
         241 1         5.340000       23.122880    0.000000E+00
         242 1        10.680000       23.122880    0.000000E+00
         243 1        16.020000       23.122880    0.000000E+00
         244 1        21.360000       23.122880    0.000000E+00
         245 1        26.700000       23.122880    0.000000E+00
         246 1        32.040000       23.122880    0.000000E+00
         247 1        37.380000       23.122880    0.000000E+00
         248 1        42.720000       23.122880    0.000000E+00
         249 1        48.060000       23.122880    0.000000E+00
         250 1        53.400000       23.122880    0.000000E+00
         251 1        58.740000       23.122880    0.000000E+00
         252 1        64.080000       23.122880    0.000000E+00
         253 1        69.420000       23.122880    0.000000E+00
         254 1        74.760000       23.122880    0.000000E+00
         255 1        80.100000       23.122880    0.000000E+00
         256 1        85.440000       23.122880    0.000000E+00
         257 1        90.780000       23.122880    0.000000E+00
         258 1        96.120000       23.122880    0.000000E+00
         259 1       101.460000       23.122880    0.000000E+00
         260 1       106.800000       23.122880    0.000000E+00
         261 1       112.140000       23.122880    0.000000E+00
         262 1       117.480000       23.122880    0.000000E+00
         263 1       122.820000       23.122880    0.000000E+00
         264 1       128.160000       23.122880    0.000000E+00
         265 1       133.500000       23.122880    0.000000E+00
         266 1       138.840000       23.122880    0.000000E+00
         267 1       144.180000       23.122880    0.000000E+00
         268 1       149.520000       23.122880    0.000000E+00
         269 1       154.860000       23.122880    0.000000E+00
         270 1       160.200000       23.122880    0.000000E+00
         271 1       165.540000       23.122880    0.000000E+00
         272 1       170.880000       23.122880    0.000000E+00
         273 1       176.220000       23.122880    0.000000E+00
         274 1       181.560000       23.122880    0.000000E+00
         275 1       186.900000       23.122880    0.000000E+00
         276 1       192.240000       23.122880    0.000000E+00
         277 1       197.580000       23.122880    0.000000E+00
         278 1       202.920000       23.122880    0.000000E+00
         279 1       208.260000       23.122880    0.000000E+00
         280 1       213.600000       23.122880    0.000000E+00
         281 1         5.340000       26.205930    0.000000E+00
         282 1        10.680000       26.205930    0.000000E+00
         283 1        16.020000       26.205930    0.000000E+00
         284 1        21.360000       26.205930    0.000000E+00
         285 1        26.700000       26.205930    0.000000E+00
         286 1        32.040000       26.205930    0.000000E+00
         287 1        37.380000       26.205930    0.000000E+00
         288 1        42.720000       26.205930    0.000000E+00
         289 1        48.060000       26.205930    0.000000E+00
         290 1        53.400000       26.205930    0.000000E+00
         291 1        58.740000       26.205930    0.000000E+00
         292 1        64.080000       26.205930    0.000000E+00
         293 1        69.420000       26.205930    0.000000E+00
         294 1        74.760000       26.205930    0.000000E+00
         295 1        80.100000       26.205930    0.000000E+00
         296 1        85.440000       26.205930    0.000000E+00
         297 1        90.780000       26.205930    0.000000E+00
         298 1        96.120000       26.205930    0.000000E+00
         299 1       101.460000       26.205930    0.000000E+00
         300 1       106.800000       26.205930    0.000000E+00
         301 1       112.140000       26.205930    0.000000E+00
         302 1       117.480000       26.205930    0.000000E+00
         303 1       122.820000       26.205930    0.000000E+00
         304 1       128.160000       26.205930    0.000000E+00
         305 1       133.500000       26.205930    0.000000E+00
         306 1       138.840000       26.205930    0.000000E+00
         307 1       144.180000       26.205930    0.000000E+00
         308 1       149.520000       26.205930    0.000000E+00
         309 1       154.860000       26.205930    0.000000E+00
         310 1       160.200000       26.205930    0.000000E+00
         311 1       165.540000       26.205930    0.000000E+00
         312 1       170.880000       26.205930    0.000000E+00
         313 1       176.220000       26.205930    0.000000E+00
         314 1       181.560000       26.205930    0.000000E+00
         315 1       186.900000       26.205930    0.000000E+00
         316 1       192.240000       26.205930    0.000000E+00
         317 1       197.580000       26.205930    0.000000E+00
         318 1       202.920000       26.205930    0.000000E+00
         319 1       208.260000       26.205930    0.000000E+00
         320 1       213.600000       26.205930    0.000000E+00
         321 1         5.340000       29.288980    0.000000E+00
         322 1        10.680000       29.288980    0.000000E+00
         323 1        16.020000       29.288980    0.000000E+00
         324 1        21.360000       29.288980    0.000000E+00
         325 1        26.700000       29.288980    0.000000E+00
         326 1        32.040000       29.288980    0.000000E+00
         327 1        37.380000       29.288980    0.000000E+00
         328 1        42.720000       29.288980    0.000000E+00
         329 1        48.060000       29.288980    0.000000E+00
         330 1        53.400000       29.288980    0.000000E+00
         331 1        58.740000       29.288980    0.000000E+00
         332 1        64.080000       29.288980    0.000000E+00
         333 1        69.420000       29.288980    0.000000E+00
         334 1        74.760000       29.288980    0.000000E+00
         335 1        80.100000       29.288980    0.000000E+00
         336 1        85.440000       29.288980    0.000000E+00
         337 1        90.780000       29.288980    0.000000E+00
         338 1        96.120000       29.288980    0.000000E+00
         339 1       101.460000       29.288980    0.000000E+00
         340 1       106.800000       29.288980    0.000000E+00
         341 1       112.140000       29.288980    0.000000E+00
         342 1       117.480000       29.288980    0.000000E+00
         343 1       122.820000       29.288980    0.000000E+00
         344 1       128.160000       29.288980    0.000000E+00
         345 1       133.500000       29.288980    0.000000E+00
         346 1       138.840000       29.288980    0.000000E+00
         347 1       144.180000       29.288980    0.000000E+00
         348 1       149.520000       29.288980    0.000000E+00
         349 1       154.860000       29.288980    0.000000E+00
         350 1       160.200000       29.288980    0.000000E+00
         351 1       165.540000       29.288980    0.000000E+00
         352 1       170.880000       29.288980    0.000000E+00
         353 1       176.220000       29.288980    0.000000E+00
         354 1       181.560000       29.288980    0.000000E+00
         355 1       186.900000       29.288980    0.000000E+00
         356 1       192.240000       29.288980    0.000000E+00
         357 1       197.580000       29.288980    0.000000E+00
         358 1       202.920000       29.288980    0.000000E+00
         359 1       208.260000       29.288980    0.000000E+00
         360 1       213.600000       29.288980    0.000000E+00
         361 1         5.340000       32.372030    0.000000E+00
         362 1        10.680000       32.372030    0.000000E+00
         363 1        16.020000       32.372030    0.000000E+00
         364 1        21.360000       32.372030    0.000000E+00
         365 1        26.700000       32.372030    0.000000E+00
         366 1        32.040000       32.372030    0.000000E+00
         367 1        37.380000       32.372030    0.000000E+00
         368 1        42.720000       32.372030    0.000000E+00
         369 1        48.060000       32.372030    0.000000E+00
         370 1        53.400000       32.372030    0.000000E+00
         371 1        58.740000       32.372030    0.000000E+00
         372 1        64.080000       32.372030    0.000000E+00
         373 1        69.420000       32.372030    0.000000E+00
         374 1        74.760000       32.372030    0.000000E+00
         375 1        80.100000       32.372030    0.000000E+00
         376 1        85.440000       32.372030    0.000000E+00
         377 1        90.780000       32.372030    0.000000E+00
         378 1        96.120000       32.372030    0.000000E+00
         379 1       101.460000       32.372030    0.000000E+00
         380 1       106.800000       32.372030    0.000000E+00
         381 1       112.140000       32.372030    0.000000E+00
         382 1       117.480000       32.372030    0.000000E+00
         383 1       122.820000       32.372030    0.000000E+00
         384 1       128.160000       32.372030    0.000000E+00
         385 1       133.500000       32.372030    0.000000E+00
         386 1       138.840000       32.372030    0.000000E+00
         387 1       144.180000       32.372030    0.000000E+00
         388 1       149.520000       32.372030    0.000000E+00
         389 1       154.860000       32.372030    0.000000E+00
         390 1       160.200000       32.372030    0.000000E+00
         391 1       165.540000       32.372030    0.000000E+00
         392 1       170.880000       32.372030    0.000000E+00
         393 1       176.220000       32.372030    0.000000E+00
         394 1       181.560000       32.372030    0.000000E+00
         395 1       186.900000       32.372030    0.000000E+00
         396 1       192.240000       32.372030    0.000000E+00
         397 1       197.580000       32.372030    0.000000E+00
         398 1       202.920000       32.372030    0.000000E+00
         399 1       208.260000       32.372030    0.000000E+00
         400 1       213.600000       32.372030    0.000000E+00
         401 1         5.340000       35.455080    0.000000E+00
         402 1        10.680000       35.455080    0.000000E+00
         403 1        16.020000       35.455080    0.000000E+00
         404 1        21.360000       35.455080    0.000000E+00
         405 1        26.700000       35.455080    0.000000E+00
         406 1        32.040000       35.455080    0.000000E+00
         407 1        37.380000       35.455080    0.000000E+00
         408 1        42.720000       35.455080    0.000000E+00
         409 1        48.060000       35.455080    0.000000E+00
         410 1        53.400000       35.455080    0.000000E+00
         411 1        58.740000       35.455080    0.000000E+00
         412 1        64.080000       35.455080    0.000000E+00
         413 1        69.420000       35.455080    0.000000E+00
         414 1        74.760000       35.455080    0.000000E+00
         415 1        80.100000       35.455080    0.000000E+00
         416 1        85.440000       35.455080    0.000000E+00
         417 1        90.780000       35.455080    0.000000E+00
         418 1        96.120000       35.455080    0.000000E+00
         419 1       101.460000       35.455080    0.000000E+00
         420 1       106.800000       35.455080    0.000000E+00
         421 1       112.140000       35.455080    0.000000E+00
         422 1       117.480000       35.455080    0.000000E+00
         423 1       122.820000       35.455080    0.000000E+00
         424 1       128.160000       35.455080    0.000000E+00
         425 1       133.500000       35.455080    0.000000E+00
         426 1       138.840000       35.455080    0.000000E+00
         427 1       144.180000       35.455080    0.000000E+00
         428 1       149.520000       35.455080    0.000000E+00
         429 1       154.860000       35.455080    0.000000E+00
         430 1       160.200000       35.455080    0.000000E+00
         431 1       165.540000       35.455080    0.000000E+00
         432 1       170.880000       35.455080    0.000000E+00
         433 1       176.220000       35.455080    0.000000E+00
         434 1       181.560000       35.455080    0.000000E+00
         435 1       186.900000       35.455080    0.000000E+00
         436 1       192.240000       35.455080    0.000000E+00
         437 1       197.580000       35.455080    0.000000E+00
         438 1       202.920000       35.455080    0.000000E+00
         439 1       208.260000       35.455080    0.000000E+00
         440 1       213.600000       35.455080    0.000000E+00
         441 1         5.340000       38.538130    0.000000E+00
         442 1        10.680000       38.538130    0.000000E+00
         443 1        16.020000       38.538130    0.000000E+00
         444 1        21.360000       38.538130    0.000000E+00
         445 1        26.700000       38.538130    0.000000E+00
         446 1        32.040000       38.538130    0.000000E+00
         447 1        37.380000       38.538130    0.000000E+00
         448 1        42.720000       38.538130    0.000000E+00
         449 1        48.060000       38.538130    0.000000E+00
         450 1        53.400000       38.538130    0.000000E+00
         451 1        58.740000       38.538130    0.000000E+00
         452 1        64.080000       38.538130    0.000000E+00
         453 1        69.420000       38.538130    0.000000E+00
         454 1        74.760000       38.538130    0.000000E+00
         455 1        80.100000       38.538130    0.000000E+00
         456 1        85.440000       38.538130    0.000000E+00
         457 1        90.780000       38.538130    0.000000E+00
         458 1        96.120000       38.538130    0.000000E+00
         459 1       101.460000       38.538130    0.000000E+00
         460 1       106.800000       38.538130    0.000000E+00
         461 1       112.140000       38.538130    0.000000E+00
         462 1       117.480000       38.538130    0.000000E+00
         463 1       122.820000       38.538130    0.000000E+00
         464 1       128.160000       38.538130    0.000000E+00
         465 1       133.500000       38.538130    0.000000E+00