LAMMPS (12 Apr 2013)
units			metal
atom_style		atomic
timestep 		0.001
dimension 	        2
boundary		p p p
# ---------- Create Atoms ---------------------
lattice custom 5.019 a1 1  0  0  a2 -0.5 0.867 0 a3 0.0 0.0 0.5 basis 0 0.71209872 0 basis 0 0 0 basis 0.71209871 0 0 basis 0 0.50002013 0 basis 0.14395064 0.14395064 0 basis 0.5 0.3333736 0
Lattice spacing in x,y,z = 7.5285 4.35147 2.5095
region  box block 0 10 0 10 -0.5 0.5
create_box 2 box
Created orthogonal box = (0 0 -1.25475) to (75.285 43.5147 1.25475)
  1 by 1 by 1 MPI processor grid
create_atoms 1 box basis 1 2 basis 2 2 basis 3 2 basis 4 1 basis 5 2 basis 6 1
Created 900 atoms
mass			1 28.0855
mass			2 12.0107
velocity	all create 50.0 12345
pair_style tersoff
pair_coeff * * SiC.tersoff Si C
thermo_style custom step temp etotal  xlo xhi ylo yhi zlo zhi
#---------------relax------------------------
fix			1 all npt temp 50.0 50.0 0.001 x 0.0 0.0 1000.0 y 0.0 0.0 1000.0 couple xy
dump				1 all xyz 50000 relax.xyz
thermo				10000
run				100000
Memory usage per processor = 1.95882 Mbytes
Step Temp TotEng Xlo Xhi Ylo Yhi Zlo Zhi 
       0           50    13464.118            0       75.285            0     43.51473     -1.25475      1.25475 
   10000    49.434923   -5416.4134   -1.4668179    76.751818  -0.84782073    44.362551     -1.25475      1.25475 
   20000    51.195963   -5415.0198   -1.4830325    76.768032  -0.85719277    44.371923     -1.25475      1.25475 
   30000    48.554187   -5426.4763   -1.1856285    76.470629  -0.68529328    44.200023     -1.25475      1.25475 
   40000    50.710247   -5424.7972   -1.3305444    76.615544  -0.76905469    44.283785     -1.25475      1.25475 
   50000    51.004278   -5427.8876   -1.2510057    76.536006  -0.72308129    44.237811     -1.25475      1.25475 
   60000    49.695864   -5427.9434   -1.2321022    76.517102   -0.7121551    44.226885     -1.25475      1.25475 
   70000     51.55696   -5426.7001   -1.2869315    76.571932  -0.74384642    44.258576     -1.25475      1.25475 
   80000    49.507768   -5427.5947   -1.2206275    76.505628   -0.7055227    44.220253     -1.25475      1.25475 
   90000      51.2563   -5427.6189   -1.2634135    76.548413  -0.73025297    44.244983     -1.25475      1.25475 
  100000    50.598574   -5427.9676   -1.2526303     76.53763  -0.72402033     44.23875     -1.25475      1.25475 
Loop time of 2832.7 on 1 procs for 100000 steps with 900 atoms

Pair  time (%) = 2801.4 (98.8952)
Neigh time (%) = 0.00723534 (0.000255422)
Comm  time (%) = 2.08325 (0.0735431)
Outpt time (%) = 0.0273388 (0.000965117)
Other time (%) = 29.1767 (1.03)

Nlocal:    900 ave 900 max 900 min
Histogram: 1 0 0 0 0 0 0 0 0 0
Nghost:    346 ave 346 max 346 min
Histogram: 1 0 0 0 0 0 0 0 0 0
Neighs:    0 ave 0 max 0 min
Histogram: 1 0 0 0 0 0 0 0 0 0
FullNghs:  16200 ave 16200 max 16200 min
Histogram: 1 0 0 0 0 0 0 0 0 0

Total # of neighbors = 16200
Ave neighs/atom = 18
Neighbor list builds = 6
Dangerous builds = 0
undump				1
unfix				1
