LAMMPS (7 Jun 2013)
Reading data file ...
  orthogonal box = (0 0 -0.5) to (213.6 123.322 0.5)
  9 by 4 by 1 MPI processor grid
  6400 atoms
Setting up run ...
Memory usage per processor = 1.59541 Mbytes
Step Temp TotEng Xlo Xhi Ylo Yhi Zlo Zhi Volume 
       0           50   -36332.309            0        213.6            0      123.322         -0.5          0.5    26341.579 
  100000    49.470276   -36305.066            0        213.6            0      123.322         -0.5          0.5    26341.579 
Loop time of 179.041 on 36 procs for 100000 steps with 6400 atoms

Pair  time (%) = 119.682 (66.846)
Neigh time (%) = 0 (0)
Comm  time (%) = 22.5696 (12.6058)
Outpt time (%) = 0.579446 (0.323639)
Other time (%) = 36.2101 (20.2245)

Nlocal:    177.778 ave 180 max 170 min
Histogram: 8 0 0 0 0 0 0 0 0 28
Nghost:    161.333 ave 171 max 144 min
Histogram: 4 0 0 0 4 12 0 0 8 8
Neighs:    0 ave 0 max 0 min
Histogram: 36 0 0 0 0 0 0 0 0 0
FullNghs:  3200 ave 3240 max 3060 min
Histogram: 8 0 0 0 0 0 0 0 0 28

Total # of neighbors = 115200
Ave neighs/atom = 18
Neighbor list builds = 0
Dangerous builds = 0
Setting up run ...
Memory usage per processor = 1.59568 Mbytes
Step Temp TotEng Xlo Xhi Ylo Yhi Zlo Zhi Volume 
  100000    49.470276   -36305.066            0        213.6            0      123.322         -0.5          0.5    26341.579 
  125000     65.56764   -36286.653            0        213.6            0      123.322         -0.5          0.5    26341.579 
  150000    83.045559   -36267.401            0        213.6            0      123.322         -0.5          0.5    26341.579 
  175000    99.118831   -36249.257            0        213.6            0      123.322         -0.5          0.5    26341.579 
  200000    116.79782   -36231.951            0        213.6            0      123.322         -0.5          0.5    26341.579 
  225000    129.32905   -36216.308            0        213.6            0      123.322         -0.5          0.5    26341.579 
  250000     147.9627   -36196.911            0        213.6            0      123.322         -0.5          0.5    26341.579 
  275000     160.4339   -36181.264            0        213.6            0      123.322         -0.5          0.5    26341.579 
  300000    177.89349   -36159.548            0        213.6            0      123.322         -0.5          0.5    26341.579 
  325000    193.83522   -36146.033            0        213.6            0      123.322         -0.5          0.5    26341.579 
  350000    208.74077   -36125.564            0        213.6            0      123.322         -0.5          0.5    26341.579 
  375000    232.08488   -36107.393            0        213.6            0      123.322         -0.5          0.5    26341.579 
  400000    240.86019   -36093.837            0        213.6            0      123.322         -0.5          0.5    26341.579 
  425000    259.17909   -36073.002            0        213.6            0      123.322         -0.5          0.5    26341.579 
  450000    269.44598   -36060.554            0        213.6            0      123.322         -0.5          0.5    26341.579 
  475000    294.78194   -36035.925            0        213.6            0      123.322         -0.5          0.5    26341.579 
  500000    310.61078   -36018.484            0        213.6            0      123.322         -0.5          0.5    26341.579 
  525000    327.57271   -36003.807            0        213.6            0      123.322         -0.5          0.5    26341.579 
  550000    339.24224   -35989.531            0        213.6            0      123.322         -0.5          0.5    26341.579 
  575000    360.89331   -35966.841            0        213.6            0      123.322         -0.5          0.5    26341.579 
  600000    369.58194   -35955.953            0        213.6            0      123.322         -0.5          0.5    26341.579 
  625000    388.64267    -35937.44            0        213.6            0      123.322         -0.5          0.5    26341.579 
  650000    400.00383   -35920.603            0        213.6            0      123.322         -0.5          0.5    26341.579 
  675000    418.49862   -35907.723            0        213.6            0      123.322         -0.5          0.5    26341.579 
  700000    433.41296    -35890.78            0        213.6            0      123.322         -0.5          0.5    26341.579 
  725000    446.28836   -35871.808            0        213.6            0      123.322         -0.5          0.5    26341.579 
  750000    468.17451   -35853.978            0        213.6            0      123.322         -0.5          0.5    26341.579 
  775000    480.82739   -35841.414            0        213.6            0      123.322         -0.5          0.5    26341.579 
  800000    501.33726   -35821.174            0        213.6            0      123.322         -0.5          0.5    26341.579 
  825000    515.72107   -35802.778            0        213.6            0      123.322         -0.5          0.5    26341.579 
  850000    533.52736   -35789.438            0        213.6            0      123.322         -0.5          0.5    26341.579 
  875000    552.93595   -35764.057            0        213.6            0      123.322         -0.5          0.5    26341.579 
  900000    561.31244   -35759.856            0        213.6            0      123.322         -0.5          0.5    26341.579 
  925000    598.49993   -35729.366            0        213.6            0      123.322         -0.5          0.5    26341.579 
  950000     608.2714   -35714.916            0        213.6            0      123.322         -0.5          0.5    26341.579 
  975000     614.6486   -35708.763            0        213.6            0      123.322         -0.5          0.5    26341.579 
 1000000    634.02049   -35681.682            0        213.6            0      123.322         -0.5          0.5    26341.579 
 1025000    650.79874   -35668.447            0        213.6            0      123.322         -0.5          0.5    26341.579 
 1050000    674.17187   -35652.747            0        213.6            0      123.322         -0.5          0.5    26341.579 
 1075000    675.34816   -35639.876            0        213.6            0      123.322         -0.5          0.5    26341.579 
 1100000    700.31773   -35623.709            0        213.6            0      123.322         -0.5          0.5    26341.579 
 1125000    699.46108   -35607.717            0        213.6            0      123.322         -0.5          0.5    26341.579 
 1150000    723.73566    -35588.23            0        213.6            0      123.322         -0.5          0.5    26341.579 
 1175000    739.82827   -35579.953            0        213.6            0      123.322         -0.5          0.5    26341.579 
 1200000    741.78765   -35561.816            0        213.6            0      123.322         -0.5          0.5    26341.579 
 1225000    776.15823   -35542.892            0        213.6            0      123.322         -0.5          0.5    26341.579 
 1250000    803.20034   -35524.478            0        213.6            0      123.322         -0.5          0.5    26341.579 
 1275000    813.97928   -35499.889            0        213.6            0      123.322         -0.5          0.5    26341.579 
 1300000    824.90806   -35485.443            0        213.6            0      123.322         -0.5          0.5    26341.579 
 1325000     832.2381   -35480.627            0        213.6            0      123.322         -0.5          0.5    26341.579 
 1350000    858.31649   -35453.645            0        213.6            0      123.322         -0.5          0.5    26341.579 
 1375000    861.31057   -35449.633            0        213.6            0      123.322         -0.5          0.5    26341.579 
 1400000    891.60808   -35431.155            0        213.6            0      123.322         -0.5          0.5    26341.579 
 1425000    919.50826   -35397.033            0        213.6            0      123.322         -0.5          0.5    26341.579 
 1450000    911.04951   -35396.291            0        213.6            0      123.322         -0.5          0.5    26341.579 
 1475000     936.2807   -35379.362            0        213.6            0      123.322         -0.5          0.5    26341.579 
 1500000    940.49152   -35379.232            0        213.6            0      123.322         -0.5          0.5    26341.579 
 1525000    982.53553   -35343.895            0        213.6            0      123.322         -0.5          0.5    26341.579 
 1550000    984.88099   -35323.534            0        213.6            0      123.322         -0.5          0.5    26341.579 
 1575000    1003.5416    -35319.37            0        213.6            0      123.322         -0.5          0.5    26341.579 
 1600000    1014.0068    -35309.53            0        213.6            0      123.322         -0.5          0.5    26341.579 
 1625000     1025.255   -35285.724            0        213.6            0      123.322         -0.5          0.5    26341.579 
 1650000     1042.503   -35273.596            0        213.6            0      123.322         -0.5          0.5    26341.579 
 1675000    1079.4021   -35244.261            0        213.6            0      123.322         -0.5          0.5    26341.579 
 1700000    1056.3225     -35254.5            0        213.6            0      123.322         -0.5          0.5    26341.579 
 1725000    1081.6225   -35223.405            0        213.6            0      123.322         -0.5          0.5    26341.579 
 1750000    1100.1135   -35221.393            0        213.6            0      123.322         -0.5          0.5    26341.579 
 1775000    1152.1148   -35171.918            0        213.6            0      123.322         -0.5          0.5    26341.579 
 1800000    1159.6533   -35175.771            0        213.6            0      123.322         -0.5          0.5    26341.579 
 1825000    1198.0518   -35128.643            0        213.6            0      123.322         -0.5          0.5    26341.579 
 1850000    1182.6985   -35139.449            0        213.6            0      123.322         -0.5          0.5    26341.579 
 1875000    1194.4333   -35116.721            0        213.6            0      123.322         -0.5          0.5    26341.579 
 1900000     1213.531    -35111.71            0        213.6            0      123.322         -0.5          0.5    26341.579 
 1925000    1217.7617    -35099.59            0        213.6            0      123.322         -0.5          0.5    26341.579 
 1950000    1249.7984   -35056.949            0        213.6            0      123.322         -0.5          0.5    26341.579 
 1975000    1253.6538   -35062.076            0        213.6            0      123.322         -0.5          0.5    26341.579 
 2000000    1292.7176   -35028.493            0        213.6            0      123.322         -0.5          0.5    26341.579 
 2025000    1300.6916    -35006.21            0        213.6            0      123.322         -0.5          0.5    26341.579 
 2050000    1319.9543   -34997.433            0        213.6            0      123.322         -0.5          0.5    26341.579 
 2075000    1325.9249   -35003.643            0        213.6            0      123.322         -0.5          0.5    26341.579 
 2100000    1342.7007   -34969.025            0        213.6            0      123.322         -0.5          0.5    26341.579 
 2125000    1342.4301   -34950.702            0        213.6            0      123.322         -0.5          0.5    26341.579 
 2150000    1355.7735   -34962.324            0        213.6            0      123.322         -0.5          0.5    26341.579 
 2175000    1405.8271   -34922.529            0        213.6            0      123.322         -0.5          0.5    26341.579 
 2200000    1409.5254   -34929.073            0        213.6            0      123.322         -0.5          0.5    26341.579 
 2225000    1430.4133   -34885.943            0        213.6            0      123.322         -0.5          0.5    26341.579 
 2250000    1454.3985   -34872.699            0        213.6            0      123.322         -0.5          0.5    26341.579 
 2275000    1460.4733   -34874.009            0        213.6            0      123.322         -0.5          0.5    26341.579 
 2300000    1506.8435   -34815.967            0        213.6            0      123.322         -0.5          0.5    26341.579 
 2325000    1501.0846   -34831.949            0        213.6            0      123.322         -0.5          0.5    26341.579 
 2350000     1504.704     -34805.6            0        213.6            0      123.322         -0.5          0.5    26341.579 
 2375000    1533.5665   -34786.455            0        213.6            0      123.322         -0.5          0.5    26341.579 
 2400000    1531.4746   -34791.377            0        213.6            0      123.322         -0.5          0.5    26341.579 
 2425000    1577.9216   -34778.333            0        213.6            0      123.322         -0.5          0.5    26341.579 
 2450000    1565.8908   -34769.144            0        213.6            0      123.322         -0.5          0.5    26341.579 
 2475000    1590.8904   -34726.957            0        213.6            0      123.322         -0.5          0.5    26341.579 
 2500000    1571.6351   -34754.226            0        213.6            0      123.322         -0.5          0.5    26341.579 
 2525000    1625.2751   -34712.407            0        213.6            0      123.322         -0.5          0.5    26341.579 
 2550000    1620.9847   -34677.473            0        213.6            0      123.322         -0.5          0.5    26341.579 
 2575000    1606.9158   -34686.757            0        213.6            0      123.322         -0.5          0.5    26341.579 
 2600000    1647.4071   -34656.409            0        213.6            0      123.322         -0.5          0.5    26341.579 
 2625000    1683.0533   -34636.488            0        213.6            0      123.322         -0.5          0.5    26341.579 
 2650000      1664.83    -34628.12            0        213.6            0      123.322         -0.5          0.5    26341.579 
 2675000    1709.4711   -34599.385            0        213.6            0      123.322         -0.5          0.5    26341.579 
 2700000    1727.1665   -34597.256            0        213.6            0      123.322         -0.5          0.5    26341.579 
 2725000    1785.8883   -34558.572            0        213.6            0      123.322         -0.5          0.5    26341.579 
 2750000    1746.7623   -34558.727            0        213.6            0      123.322         -0.5          0.5    26341.579 
 2775000    1753.2901   -34552.018            0        213.6            0      123.322         -0.5          0.5    26341.579 
 2800000    1798.8921   -34516.889            0        213.6            0      123.322         -0.5          0.5    26341.579 
 2825000    1784.4883   -34505.254            0        213.6            0      123.322         -0.5          0.5    26341.579 
 2850000    1801.9458   -34499.403            0        213.6            0      123.322         -0.5          0.5    26341.579 
 2875000     1824.674   -34486.697            0        213.6            0      123.322         -0.5          0.5    26341.579 
 2900000    1856.7764   -34476.952            0        213.6            0      123.322         -0.5          0.5    26341.579 
 2925000    1883.2246   -34423.157            0        213.6            0      123.322         -0.5          0.5    26341.579 
 2950000    1955.3635   -34396.657            0        213.6            0      123.322         -0.5          0.5    26341.579 
 2975000    1863.4114   -34424.831            0        213.6            0      123.322         -0.5          0.5    26341.579 
 3000000    1907.7922   -34409.844            0        213.6            0      123.322         -0.5          0.5    26341.579 
 3025000     1952.473   -34365.525            0        213.6            0      123.322         -0.5          0.5    26341.579 
 3050000    1980.7142   -34342.245            0        213.6            0      123.322         -0.5          0.5    26341.579 
 3075000    1957.1848    -34348.22            0        213.6            0      123.322         -0.5          0.5    26341.579 
 3100000    1925.6406   -34335.002            0        213.6            0      123.322         -0.5          0.5    26341.579 
 3125000    2019.3143   -34284.694            0        213.6            0      123.322         -0.5          0.5    26341.579 
 3150000    2039.8983    -34302.92            0        213.6            0      123.322         -0.5          0.5    26341.579 
 3175000      2046.02   -34257.166            0        213.6            0      123.322         -0.5          0.5    26341.579 
 3200000    2063.5191    -34263.49            0        213.6            0      123.322         -0.5          0.5    26341.579 
 3225000    2112.8271   -34221.251            0        213.6            0      123.322         -0.5          0.5    26341.579 
 3250000    2090.9739   -34227.967            0        213.6            0      123.322         -0.5          0.5    26341.579 
 3275000    2076.0442   -34231.675            0        213.6            0      123.322         -0.5          0.5    26341.579 
 3300000    2145.3106   -34187.792            0        213.6            0      123.322         -0.5          0.5    26341.579 
 3325000    2157.8374   -34143.907            0        213.6            0      123.322         -0.5          0.5    26341.579 
 3350000    2133.1983   -34160.992            0        213.6            0      123.322         -0.5          0.5    26341.579 
 3375000    2172.7967   -34129.952            0        213.6            0      123.322         -0.5          0.5    26341.579 
 3400000    2163.5253   -34154.003            0        213.6            0      123.322         -0.5          0.5    26341.579 
 3425000    2165.2952   -34128.209            0        213.6            0      123.322         -0.5          0.5    26341.579 
 3450000    2223.4862   -34095.231            0        213.6            0      123.322         -0.5          0.5    26341.579 
 3475000    2249.4685   -34077.867            0        213.6            0      123.322         -0.5          0.5    26341.579 
 3500000    2248.6372   -34087.681            0        213.6            0      123.322         -0.5          0.5    26341.579 
 3525000    2259.7395   -34018.062            0        213.6            0      123.322         -0.5          0.5    26341.579 
 3550000    2289.9444   -34028.324            0        213.6            0      123.322         -0.5          0.5    26341.579 
 3575000    2329.9272    -33976.04            0        213.6            0      123.322         -0.5          0.5    26341.579 
 3600000    2375.0899    -33960.49            0        213.6            0      123.322         -0.5          0.5    26341.579 
 3625000    2348.7232    -33940.81            0        213.6            0      123.322         -0.5          0.5    26341.579 
 3650000    2323.7388   -33986.568            0        213.6            0      123.322         -0.5          0.5    26341.579 
 3675000    2298.5521   -33981.037            0        213.6            0      123.322         -0.5          0.5    26341.579 
 3700000     2430.343   -33876.148            0        213.6            0      123.322         -0.5          0.5    26341.579 
 3725000    2422.9255   -33878.902            0        213.6            0      123.322         -0.5          0.5    26341.579 
 3750000    2395.7518   -33872.392            0        213.6            0      123.322         -0.5          0.5    26341.579 
 3775000     2439.831   -33862.772            0        213.6            0      123.322         -0.5          0.5    26341.579 
 3800000     2503.302   -33802.787            0        213.6            0      123.322         -0.5          0.5    26341.579 
 3825000    2449.8874   -33834.918            0        213.6            0      123.322         -0.5          0.5    26341.579 
 3850000    2513.4163   -33826.385            0        213.6            0      123.322         -0.5          0.5    26341.579 
 3875000    2476.4852   -33818.778            0        213.6            0      123.322         -0.5          0.5    26341.579 
 3900000    2491.2589    -33788.74            0        213.6            0      123.322         -0.5          0.5    26341.579 
 3925000    2459.7999   -33811.514            0        213.6            0      123.322         -0.5          0.5    26341.579 
 3950000     2537.197   -33753.045            0        213.6            0      123.322         -0.5          0.5    26341.579 
 3975000    2567.4578    -33727.83            0        213.6            0      123.322         -0.5          0.5    26341.579 
 4000000    2559.9483   -33710.291            0        213.6            0      123.322         -0.5          0.5    26341.579 
 4025000    2555.0309   -33722.363            0        213.6            0      123.322         -0.5          0.5    26341.579 
 4050000    2594.1251   -33714.479            0        213.6            0      123.322         -0.5          0.5    26341.579 
 4075000     2606.255   -33662.104            0        213.6            0      123.322         -0.5          0.5    26341.579 
 4100000    2648.7275   -33622.381            0        213.6            0      123.322         -0.5          0.5    26341.579 
 4125000    2714.2552   -33598.348            0        213.6            0      123.322         -0.5          0.5    26341.579 
 4150000    2663.3828   -33605.428            0        213.6            0      123.322         -0.5          0.5    26341.579 
 4175000    2683.1446   -33624.563            0        213.6            0      123.322         -0.5          0.5    26341.579 
 4200000    2747.7939   -33545.349            0        213.6            0      123.322         -0.5          0.5    26341.579 
 4225000    2668.0985   -33569.409            0        213.6            0      123.322         -0.5          0.5    26341.579 
 4250000    2720.3108   -33598.364            0        213.6            0      123.322         -0.5          0.5    26341.579 
 4275000    2824.1594   -33519.357            0        213.6            0      123.322         -0.5          0.5    26341.579 
 4300000    2733.7169   -33551.743            0        213.6            0      123.322         -0.5          0.5    26341.579 
 4325000    2791.1064   -33518.183            0        213.6            0      123.322         -0.5          0.5    26341.579 
 4350000    2757.0542   -33517.914            0        213.6            0      123.322         -0.5          0.5    26341.579 
 4375000    2880.0203    -33444.12            0        213.6            0      123.322         -0.5          0.5    26341.579 
 4400000    2845.8962   -33455.636            0        213.6            0      123.322         -0.5          0.5    26341.579 
 4425000    2759.7412   -33495.173            0        213.6            0      123.322         -0.5          0.5    26341.579 
 4450000    2908.5686   -33371.592            0        213.6            0      123.322         -0.5          0.5    26341.579 
 4475000    2913.2864   -33377.993            0        213.6            0      123.322         -0.5          0.5    26341.579 
 4500000    2886.2361   -33400.201            0        213.6            0      123.322         -0.5          0.5    26341.579 
 4525000    2910.7322   -33386.438            0        213.6            0      123.322         -0.5          0.5    26341.579 
 4550000    2939.3379   -33334.451            0        213.6            0      123.322         -0.5          0.5    26341.579 
 4575000    2905.1196   -33337.742            0        213.6            0      123.322         -0.5          0.5    26341.579 
 4600000    2923.7537   -33343.229            0        213.6            0      123.322         -0.5          0.5    26341.579 
 4625000    2937.9677   -33308.123            0        213.6            0      123.322         -0.5          0.5    26341.579 
 4650000    3037.0443   -33312.154            0        213.6            0      123.322         -0.5          0.5    26341.579 
 4675000    2929.3516   -33333.747            0        213.6            0      123.322         -0.5          0.5    26341.579 
 4700000    3026.7951   -33267.131            0        213.6            0      123.322         -0.5          0.5    26341.579 
 4725000    3088.2022   -33224.174            0        213.6            0      123.322         -0.5          0.5    26341.579 
 4750000    3031.2418   -33276.993            0        213.6            0      123.322         -0.5          0.5    26341.579 
 4775000    3110.2613   -33199.581            0        213.6            0      123.322         -0.5          0.5    26341.579 
 4800000    3053.0244   -33250.634            0        213.6            0      123.322         -0.5          0.5    26341.579 
 4825000    3124.0852   -33148.874            0        213.6            0      123.322         -0.5          0.5    26341.579 
 4850000    3107.1469   -33167.909            0        213.6            0      123.322         -0.5          0.5    26341.579 
 4875000     3097.661   -33160.051            0        213.6            0      123.322         -0.5          0.5    26341.579 
 4900000    3029.9817   -33231.944            0        213.6            0      123.322         -0.5          0.5    26341.579 
 4925000    3172.3209   -33134.581            0        213.6            0      123.322         -0.5          0.5    26341.579 
 4950000    3174.3224   -33088.469            0        213.6            0      123.322         -0.5          0.5    26341.579 
 4975000    3157.7715   -33121.138            0        213.6            0      123.322         -0.5          0.5    26341.579 
 5000000    3212.1459   -33064.231            0        213.6            0      123.322         -0.5          0.5    26341.579 
 5025000    3116.8368   -33123.171            0        213.6            0      123.322         -0.5          0.5    26341.579 
 5050000     3247.998   -33016.481            0        213.6            0      123.322         -0.5          0.5    26341.579 
 5075000     3213.653   -33022.798            0        213.6            0      123.322         -0.5          0.5    26341.579 
 5100000    3287.6604   -33011.383            0        213.6            0      123.322         -0.5          0.5    26341.579 
 5125000    3251.9622   -32981.097            0        213.6            0      123.322         -0.5          0.5    26341.579 
 5150000    3274.4094   -32942.807            0        213.6            0      123.322         -0.5          0.5    26341.579 
 5175000    3365.5064   -32940.012            0        213.6            0      123.322         -0.5          0.5    26341.579 
 5200000    3338.5956   -32932.229            0        213.6            0      123.322         -0.5          0.5    26341.579 
 5225000    3305.7318   -32930.098            0        213.6            0      123.322         -0.5          0.5    26341.579 
 5250000     3460.961   -32847.736            0        213.6            0      123.322         -0.5          0.5    26341.579 
 5275000    3401.2461   -32882.297            0        213.6            0      123.322         -0.5          0.5    26341.579 
 5300000     3407.549   -32895.589            0        213.6            0      123.322         -0.5          0.5    26341.579 
 5325000    3416.9565   -32853.393            0        213.6            0      123.322         -0.5          0.5    26341.579 
 5350000    3410.8798   -32816.821            0        213.6            0      123.322         -0.5          0.5    26341.579 
 5375000    3376.5525   -32835.017            0        213.6            0      123.322         -0.5          0.5    26341.579 
 5400000    3536.8135   -32731.343            0        213.6            0      123.322         -0.5          0.5    26341.579 
 5425000    3497.8658   -32775.719            0        213.6            0      123.322         -0.5          0.5    26341.579 
 5450000    3599.6142   -32697.753            0        213.6            0      123.322         -0.5          0.5    26341.579 
 5475000    3545.5386   -32708.695            0        213.6            0      123.322         -0.5          0.5    26341.579 
 5500000    3528.7691   -32742.267            0        213.6            0      123.322         -0.5          0.5    26341.579 
 5525000    3568.4008   -32715.321            0        213.6            0      123.322         -0.5          0.5    26341.579 
 5550000    3578.2124   -32690.496            0        213.6            0      123.322         -0.5          0.5    26341.579 
 5575000    3603.3996   -32643.287            0        213.6            0      123.322         -0.5          0.5    26341.579 
 5600000    3570.3811   -32679.125            0        213.6            0      123.322         -0.5          0.5    26341.579 
 5625000    3672.8034   -32614.083            0        213.6            0      123.322         -0.5          0.5    26341.579 
 5650000    3701.2645   -32567.664            0        213.6            0      123.322         -0.5          0.5    26341.579 
 5675000    3722.6193   -32613.277            0        213.6            0      123.322         -0.5          0.5    26341.579 
 5700000    3667.7019   -32589.404            0        213.6            0      123.322         -0.5          0.5    26341.579 
 5725000    3827.7077   -32483.172            0        213.6            0      123.322         -0.5          0.5    26341.579 
 5750000    3737.8041   -32506.516            0        213.6            0      123.322         -0.5          0.5    26341.579 
 5775000    3678.3294   -32537.131            0        213.6            0      123.322         -0.5          0.5    26341.579 
 5800000    3767.5079   -32522.159            0        213.6            0      123.322         -0.5          0.5    26341.579 
 5825000    3767.5953   -32453.373            0        213.6            0      123.322         -0.5          0.5    26341.579 
 5850000    3798.7236   -32469.779            0        213.6            0      123.322         -0.5          0.5    26341.579 
 5875000    3861.5899   -32391.493            0        213.6            0      123.322         -0.5          0.5    26341.579 
 5900000    3727.3123   -32467.001            0        213.6            0      123.322         -0.5          0.5    26341.579 
 5925000    3766.0551   -32487.995            0        213.6            0      123.322         -0.5          0.5    26341.579 
 5950000    3826.4075   -32425.722            0        213.6            0      123.322         -0.5          0.5    26341.579 
 5975000    3785.6957   -32442.926            0        213.6            0      123.322         -0.5          0.5    26341.579 
 6000000    3837.4196   -32397.526            0        213.6            0      123.322         -0.5          0.5    26341.579 
 6025000    3842.9623   -32357.135            0        213.6            0      123.322         -0.5          0.5    26341.579 
 6050000    3906.3811   -32284.408            0        213.6            0      123.322         -0.5          0.5    26341.579 
 6075000    3954.8554    -32324.85            0        213.6            0      123.322         -0.5          0.5    26341.579 
 6100000     3981.274    -32257.05            0        213.6            0      123.322         -0.5          0.5    26341.579 
 6125000    3929.0492   -32295.819            0        213.6            0      123.322         -0.5          0.5    26341.579 
 6150000    3924.2032   -32281.663            0        213.6            0      123.322         -0.5          0.5    26341.579 
 6175000    3981.6612   -32223.788            0        213.6            0      123.322         -0.5          0.5    26341.579 
 6200000    3975.6475   -32240.831            0        213.6            0      123.322         -0.5          0.5    26341.579 
 6225000    4062.2818    -32135.16            0        213.6            0      123.322         -0.5          0.5    26341.579 
 6250000    4016.5702   -32239.358            0        213.6            0      123.322         -0.5          0.5    26341.579 
 6275000    4041.0552   -32201.394            0        213.6            0      123.322         -0.5          0.5    26341.579 
 6300000    4136.4712    -32115.51            0        213.6            0      123.322         -0.5          0.5    26341.579 
 6325000    3998.3473   -32168.656            0        213.6            0      123.322         -0.5          0.5    26341.579 
 6350000    4082.3989   -32092.734            0        213.6            0      123.322         -0.5          0.5    26341.579 
 6375000    4069.1613   -32159.158            0        213.6            0      123.322         -0.5          0.5    26341.579 
 6400000    4047.2028   -32157.127            0        213.6            0      123.322         -0.5          0.5    26341.579 
 6425000    4242.2686   -32008.294            0        213.6            0      123.322         -0.5          0.5    26341.579 
 6450000    4058.3213   -32134.202            0        213.6            0      123.322         -0.5          0.5    26341.579 
 6475000    4222.5808   -32045.974            0        213.6            0      123.322         -0.5          0.5    26341.579 
 6500000     4137.717   -32040.595            0        213.6            0      123.322         -0.5          0.5    26341.579 
 6525000    4215.7906   -31936.774            0        213.6            0      123.322         -0.5          0.5    26341.579 
 6550000    4229.9258   -31977.242            0        213.6            0      123.322         -0.5          0.5    26341.579 
 6575000    4170.9408   -32014.641            0        213.6            0      123.322         -0.5          0.5    26341.579 
 6600000    4261.7472   -31961.005            0        213.6            0      123.322         -0.5          0.5    26341.579 
 6625000    4306.9057   -31890.429            0        213.6            0      123.322         -0.5          0.5    26341.579 
 6650000    4268.1352   -31902.415            0        213.6            0      123.322         -0.5          0.5    26341.579 
 6675000    4416.5719   -31806.746            0        213.6            0      123.322         -0.5          0.5    26341.579 
 6700000    4355.8634   -31865.459            0        213.6            0      123.322         -0.5          0.5    26341.579 
 6725000    4412.8401   -31787.542            0        213.6            0      123.322         -0.5          0.5    26341.579 
 6750000    4386.2244   -31843.325            0        213.6            0      123.322         -0.5          0.5    26341.579 
 6775000    4358.5963   -31850.263            0        213.6            0      123.322         -0.5          0.5    26341.579 
 6800000    4412.8575   -31797.779            0        213.6            0      123.322         -0.5          0.5    26341.579 
 6825000    4404.8415   -31813.318            0        213.6            0      123.322         -0.5          0.5    26341.579 
 6850000    4422.4427   -31743.703            0        213.6            0      123.322         -0.5          0.5    26341.579 
 6875000    4394.6674   -31771.579            0        213.6            0      123.322         -0.5          0.5    26341.579 
 6900000    4521.6855   -31696.167            0        213.6            0      123.322         -0.5          0.5    26341.579 
 6925000    4516.3666    -31685.22            0        213.6            0      123.322         -0.5          0.5    26341.579 
 6950000    4391.2205   -31740.545            0        213.6            0      123.322         -0.5          0.5    26341.579 
 6975000    4473.9809   -31706.198            0        213.6            0      123.322         -0.5          0.5    26341.579 
 7000000    4571.7731   -31610.284            0        213.6            0      123.322         -0.5          0.5    26341.579 
 7025000     4483.531   -31676.166            0        213.6            0      123.322         -0.5          0.5    26341.579 
 7050000    4500.8234   -31643.782            0        213.6            0      123.322         -0.5          0.5    26341.579 
 7075000    4563.0818   -31631.965            0        213.6            0      123.322         -0.5          0.5    26341.579 
 7100000    4588.3832   -31597.545            0        213.6            0      123.322         -0.5          0.5    26341.579 
 7125000    4594.1971    -31533.88            0        213.6            0      123.322         -0.5          0.5    26341.579 
 7150000    4622.3395   -31559.968            0        213.6            0      123.322         -0.5          0.5    26341.579 
 7175000    4633.4015   -31514.044            0        213.6            0      123.322         -0.5          0.5    26341.579 
 7200000    4600.9737   -31513.967            0        213.6            0      123.322         -0.5          0.5    26341.579 
 7225000    4693.5965   -31482.158            0        213.6            0      123.322         -0.5          0.5    26341.579 
 7250000    4727.2512   -31477.342            0        213.6            0      123.322         -0.5          0.5    26341.579 
 7275000    4701.5143   -31463.918            0        213.6            0      123.322         -0.5          0.5    26341.579 
 7300000     4683.182   -31424.363            0        213.6            0      123.322         -0.5          0.5    26341.579 
 7325000    4835.7446   -31353.336            0        213.6            0      123.322         -0.5          0.5    26341.579 
 7350000    4704.3422   -31439.184            0        213.6            0      123.322         -0.5          0.5    26341.579 
 7375000    4754.7517   -31402.435            0        213.6            0      123.322         -0.5          0.5    26341.579 
 7400000    4810.7653   -31367.481            0        213.6            0      123.322         -0.5          0.5    26341.579 
 7425000    4783.3527   -31329.442            0        213.6            0      123.322         -0.5          0.5    26341.579 
 7450000    4864.6695   -31281.347            0        213.6            0      123.322         -0.5          0.5    26341.579 
 7475000    4755.3689   -31320.233            0        213.6            0      123.322         -0.5          0.5    26341.579 
 7500000     4826.275   -31300.899            0        213.6            0      123.322         -0.5          0.5    26341.579 
 7525000    4793.8018   -31306.108            0        213.6            0      123.322         -0.5          0.5    26341.579 
 7550000    4804.9871   -31302.318            0        213.6            0      123.322         -0.5          0.5    26341.579 
 7575000     4768.848   -31278.835            0        213.6            0      123.322         -0.5          0.5    26341.579 
 7600000    4934.5337   -31255.637            0        213.6            0      123.322         -0.5          0.5    26341.579 
 7625000    5024.6087   -31159.037            0        213.6            0      123.322         -0.5          0.5    26341.579 
 7650000    4903.2709   -31195.202            0        213.6            0      123.322         -0.5          0.5    26341.579 
 7675000    4927.3702   -31176.523            0        213.6            0      123.322         -0.5          0.5    26341.579 
 7700000    4871.2029    -31182.07            0        213.6            0      123.322         -0.5          0.5    26341.579 
 7725000    4978.6881   -31056.307            0        213.6            0      123.322         -0.5          0.5    26341.579 
 7750000    4929.2708   -31127.654            0        213.6            0      123.322         -0.5          0.5    26341.579 
 7775000     5169.546   -30995.514            0        213.6            0      123.322         -0.5          0.5    26341.579 
 7800000    5011.7193   -31039.129            0        213.6            0      123.322         -0.5          0.5    26341.579 
 7825000    5005.5203   -31070.911            0        213.6            0      123.322         -0.5          0.5    26341.579 
 7850000    5036.4248   -31078.568            0        213.6            0      123.322         -0.5          0.5    26341.579 
 7875000    5001.3934   -31046.937            0        213.6            0      123.322         -0.5          0.5    26341.579 
 7900000    5105.0525   -31045.233            0        213.6            0      123.322         -0.5          0.5    26341.579 
 7925000    5047.5814    -31013.87            0        213.6            0      123.322         -0.5          0.5    26341.579 
 7950000    4937.5898    -31057.05            0        213.6            0      123.322         -0.5          0.5    26341.579 
 7975000    5186.7501   -30977.164            0        213.6            0      123.322         -0.5          0.5    26341.579 
 8000000    5184.4106   -30949.677            0        213.6            0      123.322         -0.5          0.5    26341.579 
 8025000    5138.5071   -30992.654            0        213.6            0      123.322         -0.5          0.5    26341.579 
 8050000    5134.9644   -30978.706            0        213.6            0      123.322         -0.5          0.5    26341.579 
 8075000    5233.9149   -30892.973            0        213.6            0      123.322         -0.5          0.5    26341.579 
 8100000    5188.8201   -30872.178            0        213.6            0      123.322         -0.5          0.5    26341.579 
 8125000    5167.7596   -30826.265            0        213.6            0      123.322         -0.5          0.5    26341.579 
 8150000    5223.1754   -30789.067            0        213.6            0      123.322         -0.5          0.5    26341.579 
 8175000    5178.9562   -30882.701            0        213.6            0      123.322         -0.5          0.5    26341.579 
 8200000    5303.2753   -30747.501            0        213.6            0      123.322         -0.5          0.5    26341.579 
 8225000    5279.8149   -30782.475            0        213.6            0      123.322         -0.5          0.5    26341.579 
 8250000    5392.3805   -30705.769            0        213.6            0      123.322         -0.5          0.5    26341.579 
 8275000    5263.6394   -30803.951            0        213.6            0      123.322         -0.5          0.5    26341.579 
 8300000    5334.4132   -30731.069            0        213.6            0      123.322         -0.5          0.5    26341.579 
 8325000    5275.9624   -30768.941            0        213.6            0      123.322         -0.5          0.5    26341.579 
 8350000    5448.4196   -30621.633            0        213.6            0      123.322         -0.5          0.5    26341.579 
 8375000    5471.9713   -30619.147            0        213.6            0      123.322         -0.5          0.5    26341.579 
 8400000    5364.0663   -30694.476            0        213.6            0      123.322         -0.5          0.5    26341.579 
 8425000    5457.4681   -30509.073            0        213.6            0      123.322         -0.5          0.5    26341.579 
 8450000    5391.0738   -30592.286            0        213.6            0      123.322         -0.5          0.5    26341.579 
 8475000    5473.4499   -30588.034            0        213.6            0      123.322         -0.5          0.5    26341.579 
 8500000    5470.9962   -30625.642            0        213.6            0      123.322         -0.5          0.5    26341.579 
 8525000    5528.4465   -30557.816            0        213.6            0      123.322         -0.5          0.5    26341.579 
 8550000    5604.1296   -30485.535            0        213.6            0      123.322         -0.5          0.5    26341.579 
 8575000    5463.8807   -30523.002            0        213.6            0      123.322         -0.5          0.5    26341.579 
 8600000     5431.625   -30570.113            0        213.6            0      123.322         -0.5          0.5    26341.579 
 8625000    5651.8371   -30441.454            0        213.6            0      123.322         -0.5          0.5    26341.579 
 8650000    5585.9247   -30425.912            0        213.6            0      123.322         -0.5          0.5    26341.579 
 8675000    5633.5646   -30445.439            0        213.6            0      123.322         -0.5          0.5    26341.579 
 8700000     5703.208   -30453.564            0        213.6            0      123.322         -0.5          0.5    26341.579 
 8725000    5751.6286   -30301.872            0        213.6            0      123.322         -0.5          0.5    26341.579 
 8750000    5571.7272   -30415.357            0        213.6            0      123.322         -0.5          0.5    26341.579 
 8775000    5653.1956   -30262.598            0        213.6            0      123.322         -0.5          0.5    26341.579 
 8800000    5779.9425    -30258.28            0        213.6            0      123.322         -0.5          0.5    26341.579 
 8825000    5760.4777   -30243.693            0        213.6            0      123.322         -0.5          0.5    26341.579 
 8850000    5670.6419    -30278.96            0        213.6            0      123.322         -0.5          0.5    26341.579 
 8875000    5786.7227   -30164.515            0        213.6            0      123.322         -0.5          0.5    26341.579 
 8900000    5787.2289   -30185.123            0        213.6            0      123.322         -0.5          0.5    26341.579 
 8925000    5652.9403    -30266.27            0        213.6            0      123.322         -0.5          0.5    26341.579 
 8950000    5635.4485   -30385.657            0        213.6            0      123.322         -0.5          0.5    26341.579 
 8975000    5821.8006    -30187.56            0        213.6            0      123.322         -0.5          0.5    26341.579 
 9000000    5794.8121   -30175.707            0        213.6            0      123.322         -0.5          0.5    26341.579 
 9025000    5639.0031   -30200.695            0        213.6            0      123.322         -0.5          0.5    26341.579 
 9050000    6010.1027    -30028.11            0        213.6            0      123.322         -0.5          0.5    26341.579 
 9075000    5877.3363   -30078.866            0        213.6            0      123.322         -0.5          0.5    26341.579 
 9100000    5772.7831    -30163.08            0        213.6            0      123.322         -0.5          0.5    26341.579 
 9125000    5864.9404   -30054.276            0        213.6            0      123.322         -0.5          0.5    26341.579 
 9150000    5753.7864   -30139.551            0        213.6            0      123.322         -0.5          0.5    26341.579 
 9175000     5804.515   -30078.438            0        213.6            0      123.322         -0.5          0.5    26341.579 
 9200000    5872.4616   -30095.781            0        213.6            0      123.322         -0.5          0.5    26341.579 
 9225000    5945.3903   -29989.971            0        213.6            0      123.322         -0.5          0.5    26341.579 
 9250000    5969.6721   -29964.575            0        213.6            0      123.322         -0.5          0.5    26341.579 
 9275000    5877.9387   -29993.479            0        213.6            0      123.322         -0.5          0.5    26341.579 
 9300000    5968.4072   -29942.669            0        213.6            0      123.322         -0.5          0.5    26341.579 
 9325000    5980.2929   -29982.337            0        213.6            0      123.322         -0.5          0.5    26341.579 
 9350000    5974.3851   -29906.787            0        213.6            0      123.322         -0.5          0.5    26341.579 
 9375000    6024.4362   -29929.895            0        213.6            0      123.322         -0.5          0.5    26341.579 
 9400000    6142.0946   -29796.944            0        213.6            0      123.322         -0.5          0.5    26341.579 
 9425000    6115.1135    -29893.15            0        213.6            0      123.322         -0.5          0.5    26341.579 
 9450000    6105.1441   -29757.232            0        213.6            0      123.322         -0.5          0.5    26341.579 
 9475000    6204.0303   -29837.688            0        213.6            0      123.322         -0.5          0.5    26341.579 
 9500000    6127.9804   -29809.579            0        213.6            0      123.322         -0.5          0.5    26341.579 
 9525000    6238.2553   -29754.636            0        213.6            0      123.322         -0.5          0.5    26341.579 
 9550000    6119.7442   -29743.694            0        213.6            0      123.322         -0.5          0.5    26341.579 
 9575000    6207.3773   -29743.991            0        213.6            0      123.322         -0.5          0.5    26341.579 
 9600000     6150.285   -29788.485            0        213.6            0      123.322         -0.5          0.5    26341.579 
 9625000    6328.0343   -29646.532            0        213.6            0      123.322         -0.5          0.5    26341.579 
 9650000    6270.3973   -29663.082            0        213.6            0      123.322         -0.5          0.5    26341.579 
 9675000    6222.5341   -29627.823            0        213.6            0      123.322         -0.5          0.5    26341.579 
 9700000    6249.6245   -29649.332            0        213.6            0      123.322         -0.5          0.5    26341.579 
 9725000    6170.9899   -29632.445            0        213.6            0      123.322         -0.5          0.5    26341.579 
 9750000    6429.9287   -29558.919            0        213.6            0      123.322         -0.5          0.5    26341.579 
 9775000    6267.0543   -29563.002            0        213.6            0      123.322         -0.5          0.5    26341.579 
 9800000    6234.8999   -29534.939            0        213.6            0      123.322         -0.5          0.5    26341.579 
 9825000    6467.8336   -29430.307            0        213.6            0      123.322         -0.5          0.5    26341.579 
 9850000    6458.3999   -29442.511            0        213.6            0      123.322         -0.5          0.5    26341.579 
 9875000    6229.4384   -29555.558            0        213.6            0      123.322         -0.5          0.5    26341.579 
 9900000    6348.3248   -29562.306            0        213.6            0      123.322         -0.5          0.5    26341.579 
 9925000    6274.9606   -29543.839            0        213.6            0      123.322         -0.5          0.5    26341.579 
 9950000    6457.7267     -29473.9            0        213.6            0      123.322         -0.5          0.5    26341.579 
 9975000    6395.4755    -29405.65            0        213.6            0      123.322         -0.5          0.5    26341.579 
10000000    6432.8135   -29503.906            0        213.6            0      123.322         -0.5          0.5    26341.579 
10025000    6348.9944   -29508.439            0        213.6            0      123.322         -0.5          0.5    26341.579 
10050000    6430.3218   -29326.073            0        213.6            0      123.322         -0.5          0.5    26341.579 
10075000    6472.5245   -29345.642            0        213.6            0      123.322         -0.5          0.5    26341.579 
10100000    6483.4124   -29254.064            0        213.6            0      123.322         -0.5          0.5    26341.579 
Loop time of 22206.6 on 36 procs for 10000000 steps with 6400 atoms

Pair  time (%) = 15501.1 (69.804)
Neigh time (%) = 3.67417 (0.0165454)
Comm  time (%) = 2772.6 (12.4855)
Outpt time (%) = 110.481 (0.497513)
Other time (%) = 3818.73 (17.1964)

Nlocal:    177.778 ave 186 max 171 min
Histogram: 5 1 5 2 10 3 3 0 5 2
Nghost:    163.778 ave 174 max 147 min
Histogram: 1 0 2 1 7 7 4 6 5 3
Neighs:    0 ave 0 max 0 min
Histogram: 36 0 0 0 0 0 0 0 0 0
FullNghs:  3177.44 ave 3350 max 3056 min
Histogram: 5 3 5 3 9 1 3 5 0 2

Total # of neighbors = 114388
Ave neighs/atom = 17.8731
Neighbor list builds = 22154
Dangerous builds = 7
Setting up run ...
Memory usage per processor = 1.59562 Mbytes
Step Temp TotEng Xlo Xhi Ylo Yhi Zlo Zhi Volume 
10100000    6483.4124   -29254.064            0        213.6            0      123.322         -0.5          0.5    26341.579 
10200000    6522.6917   -29285.996            0        213.6            0      123.322         -0.5          0.5    26341.579 
Loop time of 250.865 on 36 procs for 100000 steps with 6400 atoms

Pair  time (%) = 180.485 (71.9452)
Neigh time (%) = 0.3308 (0.131864)
Comm  time (%) = 30.3305 (12.0904)
Outpt time (%) = 0.579663 (0.231066)
Other time (%) = 39.1386 (15.6015)

Nlocal:    177.778 ave 184 max 170 min
Histogram: 1 3 2 5 2 7 2 10 3 1
Nghost:    163.194 ave 173 max 148 min
Histogram: 2 1 1 1 5 2 12 2 7 3
Neighs:    0 ave 0 max 0 min
Histogram: 36 0 0 0 0 0 0 0 0 0
FullNghs:  3181 ave 3308 max 3024 min
Histogram: 1 1 5 3 3 8 3 7 3 2

Total # of neighbors = 114516
Ave neighs/atom = 17.8931
Neighbor list builds = 1988
Dangerous builds = 0
