400
Atoms. Timestep: 0
1 0 1.54151 0
2 0.889996 0 0
1 2.67 0 0
2 3.56 1.54151 0
1 5.34 1.54151 0
2 6.23 0 0
1 8.01 0 0
2 8.9 1.54151 0
1 10.68 1.54151 0
2 11.57 0 0
1 13.35 0 0
2 14.24 1.54151 0
1 16.02 1.54151 0
2 16.91 0 0
1 18.69 0 0
2 19.58 1.54151 0
1 21.36 1.54151 0
2 22.25 0 0
1 24.03 0 0
2 24.92 1.54151 0
1 26.7 1.54151 0
2 27.59 0 0
1 29.37 0 0
2 30.26 1.54151 0
1 32.04 1.54151 0
2 32.93 0 0
1 34.71 0 0
2 35.6 1.54151 0
1 37.38 1.54151 0
2 38.27 0 0
1 40.05 0 0
2 40.94 1.54151 0
1 42.72 1.54151 0
2 43.61 0 0
1 45.39 0 0
2 46.28 1.54151 0
1 48.06 1.54151 0
2 48.95 0 0
1 50.73 0 0
2 51.62 1.54151 0
1 0 4.62452 0
2 0.889996 3.08301 0
1 2.67 3.08301 0
2 3.56 4.62452 0
1 5.34 4.62452 0
2 6.23 3.08301 0
1 8.01 3.08301 0
2 8.9 4.62452 0
1 10.68 4.62452 0
2 11.57 3.08301 0
1 13.35 3.08301 0
2 14.24 4.62452 0
1 16.02 4.62452 0
2 16.91 3.08301 0
1 18.69 3.08301 0
2 19.58 4.62452 0
1 21.36 4.62452 0
2 22.25 3.08301 0
1 24.03 3.08301 0
2 24.92 4.62452 0
1 26.7 4.62452 0
2 27.59 3.08301 0
1 29.37 3.08301 0
2 30.26 4.62452 0
1 32.04 4.62452 0
2 32.93 3.08301 0
1 34.71 3.08301 0
2 35.6 4.62452 0
1 37.38 4.62452 0
2 38.27 3.08301 0
1 40.05 3.08301 0
2 40.94 4.62452 0
1 42.72 4.62452 0
2 43.61 3.08301 0
1 45.39 3.08301 0
2 46.28 4.62452 0
1 48.06 4.62452 0
2 48.95 3.08301 0
1 50.73 3.08301 0
2 51.62 4.62452 0
1 0 7.70753 0
2 0.889996 6.16603 0
1 2.67 6.16603 0
2 3.56 7.70753 0
1 5.34 7.70753 0
2 6.23 6.16603 0
1 8.01 6.16603 0
2 8.9 7.70753 0
1 10.68 7.70753 0
2 11.57 6.16603 0
1 13.35 6.16603 0
2 14.24 7.70753 0
1 16.02 7.70753 0
2 16.91 6.16603 0
1 18.69 6.16603 0
2 19.58 7.70753 0
1 21.36 7.70753 0
2 22.25 6.16603 0
1 24.03 6.16603 0
2 24.92 7.70753 0
1 26.7 7.70753 0
2 27.59 6.16603 0
1 29.37 6.16603 0
2 30.26 7.70753 0
1 32.04 7.70753 0
2 32.93 6.16603 0
1 34.71 6.16603 0
2 35.6 7.70753 0
1 37.38 7.70753 0
2 38.27 6.16603 0
1 40.05 6.16603 0
2 40.94 7.70753 0
1 42.72 7.70753 0
2 43.61 6.16603 0
1 45.39 6.16603 0
2 46.28 7.70753 0
1 48.06 7.70753 0
2 48.95 6.16603 0
1 50.73 6.16603 0
2 51.62 7.70753 0
1 0 10.7905 0
2 0.889996 9.24904 0
1 2.67 9.24904 0
2 3.56 10.7905 0
1 5.34 10.7905 0
2 6.23 9.24904 0
1 8.01 9.24904 0
2 8.9 10.7905 0
1 10.68 10.7905 0
2 11.57 9.24904 0
1 13.35 9.24904 0
2 14.24 10.7905 0
1 16.02 10.7905 0
2 16.91 9.24904 0
1 18.69 9.24904 0
2 19.58 10.7905 0
1 21.36 10.7905 0
2 22.25 9.24904 0
1 24.03 9.24904 0
2 24.92 10.7905 0
1 26.7 10.7905 0
2 27.59 9.24904 0
1 29.37 9.24904 0
2 30.26 10.7905 0
1 32.04 10.7905 0
2 32.93 9.24904 0
1 34.71 9.24904 0
2 35.6 10.7905 0
1 37.38 10.7905 0
2 38.27 9.24904 0
1 40.05 9.24904 0
2 40.94 10.7905 0
1 42.72 10.7905 0
2 43.61 9.24904 0
1 45.39 9.24904 0
2 46.28 10.7905 0
1 48.06 10.7905 0
2 48.95 9.24904 0
1 50.73 9.24904 0
2 51.62 10.7905 0
1 0 13.8736 0
2 0.889996 12.3321 0
1 2.67 12.3321 0
2 3.56 13.8736 0
1 5.34 13.8736 0
2 6.23 12.3321 0
1 8.01 12.3321 0
2 8.9 13.8736 0
1 10.68 13.8736 0
2 11.57 12.3321 0
1 13.35 12.3321 0
2 14.24 13.8736 0
1 16.02 13.8736 0
2 16.91 12.3321 0
1 18.69 12.3321 0
2 19.58 13.8736 0
1 21.36 13.8736 0
2 22.25 12.3321 0
1 24.03 12.3321 0
2 24.92 13.8736 0
1 26.7 13.8736 0
2 27.59 12.3321 0
1 29.37 12.3321 0
2 30.26 13.8736 0
1 32.04 13.8736 0
2 32.93 12.3321 0
1 34.71 12.3321 0
2 35.6 13.8736 0
1 37.38 13.8736 0
2 38.27 12.3321 0
1 40.05 12.3321 0
2 40.94 13.8736 0
1 42.72 13.8736 0
2 43.61 12.3321 0
1 45.39 12.3321 0
2 46.28 13.8736 0
1 48.06 13.8736 0
2 48.95 12.3321 0
1 50.73 12.3321 0
2 51.62 13.8736 0
1 0 16.9566 0
2 0.889996 15.4151 0
1 2.67 15.4151 0
2 3.56 16.9566 0
1 5.34 16.9566 0
2 6.23 15.4151 0
1 8.01 15.4151 0
2 8.9 16.9566 0
1 10.68 16.9566 0
2 11.57 15.4151 0
1 13.35 15.4151 0
2 14.24 16.9566 0
1 16.02 16.9566 0
2 16.91 15.4151 0
1 18.69 15.4151 0
2 19.58 16.9566 0
1 21.36 16.9566 0
2 22.25 15.4151 0
1 24.03 15.4151 0
2 24.92 16.9566 0
1 26.7 16.9566 0
2 27.59 15.4151 0
1 29.37 15.4151 0
2 30.26 16.9566 0
1 32.04 16.9566 0
2 32.93 15.4151 0
1 34.71 15.4151 0
2 35.6 16.9566 0
1 37.38 16.9566 0
2 38.27 15.4151 0
1 40.05 15.4151 0
2 40.94 16.9566 0
1 42.72 16.9566 0
2 43.61 15.4151 0
1 45.39 15.4151 0
2 46.28 16.9566 0
1 48.06 16.9566 0
2 48.95 15.4151 0
1 50.73 15.4151 0
2 51.62 16.9566 0
1 0 20.0396 0
2 0.889996 18.4981 0
1 2.67 18.4981 0
2 3.56 20.0396 0
1 5.34 20.0396 0
2 6.23 18.4981 0
1 8.01 18.4981 0
2 8.9 20.0396 0
1 10.68 20.0396 0
2 11.57 18.4981 0
1 13.35 18.4981 0
2 14.24 20.0396 0
1 16.02 20.0396 0
2 16.91 18.4981 0
1 18.69 18.4981 0
2 19.58 20.0396 0
1 21.36 20.0396 0
2 22.25 18.4981 0
1 24.03 18.4981 0
2 24.92 20.0396 0
1 26.7 20.0396 0
2 27.59 18.4981 0
1 29.37 18.4981 0
2 30.26 20.0396 0
1 32.04 20.0396 0
2 32.93 18.4981 0
1 34.71 18.4981 0
2 35.6 20.0396 0
1 37.38 20.0396 0
2 38.27 18.4981 0
1 40.05 18.4981 0
2 40.94 20.0396 0
1 42.72 20.0396 0
2 43.61 18.4981 0
1 45.39 18.4981 0
2 46.28 20.0396 0
1 48.06 20.0396 0
2 48.95 18.4981 0
1 50.73 18.4981 0
2 51.62 20.0396 0
1 0 23.1226 0
2 0.889996 21.5811 0
1 2.67 21.5811 0
2 3.56 23.1226 0
1 5.34 23.1226 0
2 6.23 21.5811 0
1 8.01 21.5811 0
2 8.9 23.1226 0
1 10.68 23.1226 0
2 11.57 21.5811 0
1 13.35 21.5811 0
2 14.24 23.1226 0
1 16.02 23.1226 0
2 16.91 21.5811 0
1 18.69 21.5811 0
2 19.58 23.1226 0
1 21.36 23.1226 0
2 22.25 21.5811 0
1 24.03 21.5811 0
2 24.92 23.1226 0
1 26.7 23.1226 0
2 27.59 21.5811 0
1 29.37 21.5811 0
2 30.26 23.1226 0
1 32.04 23.1226 0
2 32.93 21.5811 0
1 34.71 21.5811 0
2 35.6 23.1226 0
1 37.38 23.1226 0
2 38.27 21.5811 0
1 40.05 21.5811 0
2 40.94 23.1226 0
1 42.72 23.1226 0
2 43.61 21.5811 0
1 45.39 21.5811 0
2 46.28 23.1226 0
1 48.06 23.1226 0
2 48.95 21.5811 0
1 50.73 21.5811 0
2 51.62 23.1226 0
1 0 26.2056 0
2 0.889996 24.6641 0
1 2.67 24.6641 0
2 3.56 26.2056 0
1 5.34 26.2056 0
2 6.23 24.6641 0
1 8.01 24.6641 0
2 8.9 26.2056 0
1 10.68 26.2056 0
2 11.57 24.6641 0
1 13.35 24.6641 0
2 14.24 26.2056 0
1 16.02 26.2056 0
2 16.91 24.6641 0
1 18.69 24.6641 0
2 19.58 26.2056 0
1 21.36 26.2056 0
2 22.25 24.6641 0
1 24.03 24.6641 0
2 24.92 26.2056 0
1 26.7 26.2056 0
2 27.59 24.6641 0
1 29.37 24.6641 0
2 30.26 26.2056 0
1 32.04 26.2056 0
2 32.93 24.6641 0
1 34.71 24.6641 0
2 35.6 26.2056 0
1 37.38 26.2056 0
2 38.27 24.6641 0
1 40.05 24.6641 0
2 40.94 26.2056 0
1 42.72 26.2056 0
2 43.61 24.6641 0
1 45.39 24.6641 0
2 46.28 26.2056 0
1 48.06 26.2056 0
2 48.95 24.6641 0
1 50.73 24.6641 0
2 51.62 26.2056 0
1 0 29.2886 0
2 0.889996 27.7471 0
1 2.67 27.7471 0
2 3.56 29.2886 0
1 5.34 29.2886 0
2 6.23 27.7471 0
1 8.01 27.7471 0
2 8.9 29.2886 0
1 10.68 29.2886 0
2 11.57 27.7471 0
1 13.35 27.7471 0
2 14.24 29.2886 0
1 16.02 29.2886 0
2 16.91 27.7471 0
1 18.69 27.7471 0
2 19.58 29.2886 0
1 21.36 29.2886 0
2 22.25 27.7471 0
1 24.03 27.7471 0
2 24.92 29.2886 0
1 26.7 29.2886 0
2 27.59 27.7471 0
1 29.37 27.7471 0
2 30.26 29.2886 0
1 32.04 29.2886 0
2 32.93 27.7471 0
1 34.71 27.7471 0
2 35.6 29.2886 0
1 37.38 29.2886 0
2 38.27 27.7471 0
1 40.05 27.7471 0
2 40.94 29.2886 0
1 42.72 29.2886 0
2 43.61 27.7471 0
1 45.39 27.7471 0
2 46.28 29.2886 0
1 48.06 29.2886 0
2 48.95 27.7471 0
1 50.73 27.7471 0
2 51.62 29.2886 0
400
Atoms. Timestep: 50000
1 53.5571 1.45566 0
2 0.714527 -0.0898463 0
1 2.51359 -0.0962098 0
2 3.40431 1.44988 0
1 5.18372 1.44829 0
2 6.09757 -0.100828 0
1 7.89301 -0.0962634 0
2 8.77746 1.46197 0
1 10.5781 1.44692 0
2 11.4749 30.9223 0
1 13.2646 30.8995 0
2 14.1609 1.42817 0
1 15.9714 1.44642 0
2 16.8368 30.9141 0
1 18.6246 30.9177 0
2 19.5317 1.45028 0
1 21.3256 1.46395 0
2 22.2133 30.9213 0
1 24.0065 30.9202 0
2 24.8977 1.43984 0
1 26.6967 1.45038 0
2 27.6089 -0.101303 0
1 29.3801 -0.0824716 0
2 30.2715 1.45568 0
1 32.0657 1.46301 0
2 32.9662 -0.0907621 0
1 34.7824 30.9319 0
2 35.6754 1.45537 0
1 37.4714 1.45699 0
2 38.3555 -0.0837622 0
1 40.1217 30.9394 0
2 41.0184 1.46371 0
1 42.7984 1.4779 0
2 43.7006 30.9323 0
1 45.5042 30.9365 0
2 46.4154 1.46759 0
1 48.1771 1.47862 0
2 49.0841 30.9301 0
1 50.8588 -0.103023 0
2 51.7777 1.46035 0
1 53.5663 4.54025 0
2 0.738403 2.99057 0
1 2.522 2.99154 0
2 3.40867 4.5454 0
1 5.19093 4.57356 0
2 6.06252 2.99721 0
1 7.88033 3.00674 0
2 8.781 4.55134 0
1 10.5834 4.56274 0
2 11.4771 2.9893 0
1 13.2741 2.98807 0
2 14.1832 4.54181 0
1 15.9697 4.5331 0
2 16.8678 3.0074 0
1 18.6502 3.00137 0
2 19.5358 4.56281 0
1 21.3237 4.57196 0
2 22.2149 3.00873 0
1 24.0052 3.01223 0
2 24.8967 4.58175 0
1 26.6635 4.57936 0
2 27.5719 3.00654 0
1 29.3432 3.00426 0
2 30.2591 4.54227 0
1 32.0629 4.5286 0
2 32.969 2.99234 0
1 34.7776 3.00328 0
2 35.6572 4.56287 0
1 37.4594 4.57892 0
2 38.3664 3.02096 0
1 40.1423 3.01001 0
2 41.0413 4.56208 0
1 42.8274 4.55516 0
2 43.7268 3.00588 0
1 45.5067 3.01339 0
2 46.3977 4.56763 0
1 48.1984 4.58496 0
2 49.0886 3.02035 0
1 50.8923 3.00445 0
2 51.7692 4.55382 0
1 53.547 7.64987 0
2 0.72694 6.1115 0
1 2.50162 6.09817 0
2 3.39733 7.66434 0
1 5.18187 7.67429 0
2 6.11641 6.12973 0
1 7.90797 6.12365 0
2 8.77558 7.65867 0
1 10.5866 7.67055 0
2 11.4659 6.11212 0
1 13.2711 6.11263 0
2 14.1644 7.68613 0
1 15.9741 7.67726 0
2 16.8695 6.11164 0
1 18.6386 6.10954 0
2 19.5368 7.68187 0
1 21.3165 7.68514 0
2 22.2309 6.12887 0
1 24.0153 6.12085 0
2 24.8913 7.65583 0
1 26.6653 7.65995 0
2 27.5546 6.1081 0
1 29.3606 6.08035 0
2 30.2571 7.63833 0
1 32.0562 7.64442 0
2 32.9471 6.10409 0
1 34.761 6.10544 0
2 35.6566 7.65025 0
1 37.4495 7.6341 0
2 38.3427 6.10797 0
1 40.1496 6.12031 0
2 41.0393 7.66026 0
1 42.8427 7.65012 0
2 43.7239 6.10586 0
1 45.5081 6.1211 0
2 46.411 7.67746 0
1 48.2107 7.69288 0
2 49.0956 6.13977 0
1 50.8701 6.10385 0
2 51.7687 7.64449 0
1 53.5764 10.7373 0
2 0.72636 9.19392 0
1 2.50369 9.20739 0
2 3.40019 10.7661 0
1 5.20082 10.7624 0
2 6.09171 9.21169 0
1 7.89119 9.2009 0
2 8.79613 10.776 0
1 10.5875 10.7691 0
2 11.4966 9.23353 0
1 13.2882 9.23187 0
2 14.1835 10.7661 0
1 15.9753 10.7554 0
2 16.8785 9.19514 0
1 18.6699 9.20989 0
2 19.5421 10.7668 0
1 21.3318 10.7745 0
2 22.2318 9.23939 0
1 24.0364 9.22996 0
2 24.931 10.7769 0
1 26.6966 10.7618 0
2 27.5884 9.19759 0
1 29.3625 9.18344 0
2 30.2839 10.7502 0
1 32.0777 10.7331 0
2 32.9658 9.19377 0
1 34.7621 9.22255 0
2 35.668 10.763 0
1 37.4505 10.7525 0
2 38.3683 9.20278 0
1 40.1401 9.22369 0
2 41.0409 10.7592 0
1 42.8189 10.7608 0
2 43.7299 9.22399 0
1 45.5235 9.21217 0
2 46.4117 10.7709 0
1 48.204 10.7731 0
2 49.1011 9.21999 0
1 50.8787 9.20873 0
2 51.7823 10.7611 0
1 -0.15049 13.8552 0
2 0.739631 12.2922 0
1 2.50817 12.3036 0
2 3.41521 13.8487 0
1 5.19027 13.8484 0
2 6.0878 12.3187 0
1 7.87436 12.3101 0
2 8.77262 13.8504 0
1 10.5623 13.8577 0
2 11.4728 12.3188 0
1 13.2748 12.3292 0
2 14.1741 13.8725 0
1 15.9602 13.8459 0
2 16.8556 12.3226 0
1 18.6334 12.3151 0
2 19.5246 13.8703 0
1 21.3375 13.8504 0
2 22.2268 12.3212 0
1 24.0282 12.3237 0
2 24.9216 13.8668 0
1 26.714 13.8773 0
2 27.6064 12.3107 0
1 29.3841 12.2975 0
2 30.2925 13.8545 0
1 32.0742 13.8504 0
2 32.9858 12.2976 0
1 34.7667 12.3187 0
2 35.6583 13.8607 0
1 37.4525 13.8555 0
2 38.3456 12.3271 0
1 40.1496 12.3299 0
2 41.0245 13.8796 0
1 42.8188 13.8697 0
2 43.7195 12.3245 0
1 45.5183 12.3094 0
2 46.413 13.8794 0
1 48.1929 13.8899 0
2 49.0972 12.3196 0
1 50.899 12.31 0
2 51.7887 13.8684 0
1 -0.176502 16.959 0
2 0.722954 15.401 0
1 2.51188 15.3997 0
2 3.40792 16.9395 0
1 5.2072 16.9574 0
2 6.07658 15.4139 0
1 7.87374 15.4072 0
2 8.79006 16.9497 0
1 10.5879 16.9769 0
2 11.476 15.43 0
1 13.2725 15.4225 0
2 14.1893 16.9925 0
1 15.9731 16.9732 0
2 16.8506 15.4095 0
1 18.6364 15.4074 0
2 19.541 16.9402 0
1 21.347 16.9393 0
2 22.2496 15.3974 0
1 24.0267 15.4135 0
2 24.9195 16.9712 0
1 26.7035 16.972 0
2 27.618 15.4265 0
1 29.3969 15.4281 0
2 30.2873 16.9502 0
1 32.0733 16.9555 0
2 32.9906 15.3957 0
1 34.7614 15.4043 0
2 35.6455 16.953 0
1 37.442 16.9618 0
2 38.339 15.4252 0
1 40.1351 15.4335 0
2 41.0357 17.003 0
1 42.8086 16.9947 0
2 43.7019 15.4103 0
1 45.4892 15.4242 0
2 46.3979 16.9818 0
1 48.1747 16.9611 0
2 49.0766 15.439 0
1 50.8603 15.4189 0
2 51.7636 16.9625 0
1 -0.170897 20.0455 0
2 0.717083 18.4971 0
1 2.49988 18.5016 0
2 3.41704 20.0588 0
1 5.20469 20.0646 0
2 6.09368 18.5165 0
1 7.89332 18.5047 0
2 8.78595 20.0545 0
1 10.5848 20.0559 0
2 11.4817 18.5054 0
1 13.2769 18.5512 0
2 14.1782 20.0717 0
1 15.9722 20.0729 0
2 16.8684 18.5203 0
1 18.6769 18.5115 0
2 19.5504 20.0703 0
1 21.326 20.0722 0
2 22.2129 18.5027 0
1 24.0256 18.5216 0
2 24.9062 20.061 0
1 26.7047 20.0664 0
2 27.5953 18.5123 0
1 29.4032 18.4888 0
2 30.2945 20.04 0
1 32.0922 20.0501 0
2 32.9695 18.5077 0
1 34.7389 18.4864 0
2 35.6413 20.0545 0
1 37.4606 20.0569 0
2 38.3495 18.519 0
1 40.1475 18.5383 0
2 41.0258 20.086 0
1 42.8154 20.1009 0
2 43.7221 18.5534 0
1 45.5094 18.5403 0
2 46.4084 20.0783 0
1 48.1872 20.0726 0
2 49.098 18.522 0
1 50.8784 18.5127 0
2 51.7656 20.0727 0
1 53.55 23.1774 0
2 0.726685 21.6175 0
1 2.53346 21.6294 0
2 3.43261 23.1553 0
1 5.20996 23.1663 0
2 6.10748 21.6156 0
1 7.89685 21.6104 0
2 8.78329 23.1769 0
1 10.5839 23.1784 0
2 11.5143 21.6341 0
1 13.3085 21.6484 0
2 14.1934 23.1842 0
1 15.977 23.1704 0
2 16.8586 21.6071 0
1 18.6434 21.5985 0
2 19.5419 23.146 0
1 21.3446 23.1471 0
2 22.227 21.5983 0
1 24.0132 21.6161 0
2 24.8971 23.1755 0
1 26.6832 23.1736 0
2 27.5793 21.6265 0
1 29.3917 21.6196 0
2 30.2906 23.1565 0
1 32.0935 23.161 0
2 32.9683 21.6202 0
1 34.7546 21.6175 0
2 35.6573 23.18 0
1 37.4565 23.1675 0
2 38.3494 21.6315 0
1 40.128 21.6348 0
2 41.0466 23.1608 0
1 42.8189 23.167 0
2 43.716 21.6396 0
1 45.5067 21.6438 0
2 46.3918 23.1775 0
1 48.1752 23.1882 0
2 49.0643 21.6325 0
1 50.8543 21.6289 0
2 51.7588 23.1788 0
1 53.5479 26.2659 0
2 0.73168 24.7199 0
1 2.49907 24.7156 0
2 3.42733 26.2674 0
1 5.20248 26.2963 0
2 6.09582 24.7189 0
1 7.87906 24.7259 0
2 8.79513 26.293 0
1 10.5986 26.2713 0
2 11.4775 24.7183 0
1 13.2806 24.7183 0
2 14.18 26.2651 0
1 15.9637 26.2593 0
2 16.8687 24.6968 0
1 18.6415 24.6955 0
2 19.5346 26.2659 0
1 21.3054 26.2662 0
2 22.2259 24.7141 0
1 23.9948 24.7367 0
2 24.907 26.2777 0
1 26.6918 26.2658 0
2 27.5899 24.7125 0
1 29.3884 24.7084 0
2 30.2905 26.2672 0
1 32.0673 26.273 0
2 32.9794 24.7285 0
1 34.7687 24.7171 0
2 35.6591 26.265 0
1 37.4482 26.2539 0
2 38.3507 24.7178 0
1 40.1407 24.7064 0
2 41.0202 26.2659 0
1 42.8268 26.2548 0
2 43.7129 24.7161 0
1 45.4989 24.7186 0
2 46.3995 26.2886 0
1 48.1647 26.2806 0
2 49.0688 24.7285 0
1 50.8536 24.7219 0
2 51.772 26.2688 0
1 53.5443 29.3781 0
2 0.705639 27.8346 0
1 2.52299 27.8197 0
2 3.40877 29.3712 0
1 5.20618 29.3845 0
2 6.09911 27.8409 0
1 7.89947 27.8397 0
2 8.79019 29.3882 0
1 10.5894 29.3766 0
2 11.475 27.8296 0
1 13.2712 27.8229 0
2 14.146 29.3448 0
1 15.9455 29.3488 0
2 16.8492 27.8155 0
1 18.6395 27.8098 0
2 19.5384 29.3653 0
1 21.3074 29.3766 0
2 22.2009 27.8375 0
1 23.9923 27.8242 0
2 24.8918 29.366 0
1 26.7063 29.3812 0
2 27.5872 27.8129 0
1 29.3812 27.8125 0
2 30.275 29.3752 0
1 32.0672 29.3802 0
2 32.9641 27.8266 0
1 34.7609 27.8298 0
2 35.68 29.3818 0
1 37.4641 29.3815 0
2 38.3672 27.8348 0
1 40.1152 27.8217 0
2 41.0296 29.3768 0
1 42.8164 29.3706 0
2 43.7096 27.827 0
1 45.5021 27.8431 0
2 46.389 29.3835 0
1 48.187 29.3913 0
2 49.0739 27.8335 0
1 50.8657 27.8029 0
2 51.7512 29.3677 0
400
Atoms. Timestep: 100000
1 53.7008 1.39576 0
2 0.603759 -0.157751 0
1 2.39222 -0.155523 0
2 3.28379 1.37763 0
1 5.10327 1.39109 0
2 5.99333 -0.179333 0
1 7.81025 -0.188053 0
2 8.70604 1.36386 0
1 10.5115 1.37295 0
2 11.4025 31.0078 0
1 13.2081 31.0169 0
2 14.1116 1.37896 0
1 15.9007 1.38098 0
2 16.8025 30.9946 0
1 18.6026 31.0141 0
2 19.5113 1.38735 0
1 21.2981 1.37783 0
2 22.196 31.0072 0
1 23.9866 31.0023 0
2 24.8963 1.39114 0
1 26.6731 1.40033 0
2 27.5699 -0.16641 0
1 29.3671 -0.163539 0
2 30.2675 1.38241 0
1 32.0728 1.37435 0
2 32.9765 -0.180009 0
1 34.7703 31.0139 0
2 35.6867 1.37267 0
1 37.4969 1.38578 0
2 38.4013 -0.159659 0
1 40.1912 31.0398 0
2 41.09 1.39991 0
1 42.8887 1.4024 0
2 43.7962 31.0176 0
1 45.6033 31.0088 0
2 46.5174 1.36756 0
1 48.3287 1.3929 0
2 49.2169 31.0173 0
1 51.0261 -0.185646 0
2 51.9214 1.38674 0
1 53.7098 4.4973 0
2 0.588297 2.94613 0
1 2.38481 2.94119 0
2 3.30234 4.50328 0
1 5.10116 4.50587 0
2 6.0203 2.95843 0
1 7.81233 2.95069 0
2 8.69795 4.50251 0
1 10.5146 4.50347 0
2 11.4178 2.95733 0
1 13.2175 2.95578 0
2 14.1164 4.49645 0
1 15.9129 4.48948 0
2 16.8074 2.937 0
1 18.6252 2.93806 0
2 19.4913 4.50745 0
1 21.2945 4.51905 0
2 22.1892 2.9267 0
1 23.9976 2.96913 0
2 24.8865 4.52922 0
1 26.6734 4.50453 0
2 27.5791 2.95648 0
1 29.3646 2.95449 0
2 30.2916 4.49399 0
1 32.0811 4.4869 0
2 32.997 2.93966 0
1 34.7858 2.95186 0
2 35.7058 4.49512 0
1 37.5035 4.51111 0
2 38.3957 2.94324 0
1 40.2042 2.97305 0
2 41.1145 4.52183 0
1 42.9221 4.48486 0
2 43.8164 2.93653 0
1 45.6189 2.9187 0
2 46.5352 4.49144 0
1 48.3243 4.49099 0
2 49.2182 2.95052 0
1 51.0207 2.94407 0
2 51.9072 4.51141 0
1 53.7109 7.60655 0
2 0.621785 6.05354 0
1 2.41609 6.06982 0
2 3.30855 7.62861 0
1 5.10124 7.60572 0
2 5.99131 6.06877 0
1 7.79335 6.05116 0
2 8.69949 7.60442 0
1 10.496 7.59152 0
2 11.3975 6.04447 0
1 13.2036 6.03933 0
2 14.0922 7.60625 0
1 15.892 7.62549 0
2 16.8127 6.06221 0
1 18.5981 6.0598 0
2 19.4944 7.61079 0
1 21.2924 7.6238 0
2 22.1779 6.07528 0
1 23.9734 6.0785 0
2 24.8738 7.6326 0
1 26.6802 7.60707 0
2 27.5739 6.06706 0
1 29.3906 6.06646 0
2 30.2847 7.59632 0
1 32.0811 7.60896 0
2 32.9723 6.03432 0
1 34.7828 6.0374 0
2 35.6969 7.59789 0
1 37.4835 7.61421 0
2 38.3967 6.06165 0
1 40.1871 6.07996 0
2 41.103 7.62935 0
1 42.9164 7.63087 0
2 43.8263 6.06463 0
1 45.6331 6.05761 0
2 46.5261 7.6389 0
1 48.3154 7.65426 0
2 49.2141 6.07792 0
1 50.9927 6.06209 0
2 51.9029 7.61801 0
1 53.7112 10.7508 0
2 0.593635 9.17454 0
1 2.38686 9.18889 0
2 3.28499 10.7347 0
1 5.07741 10.7388 0
2 5.99534 9.16059 0
1 7.80355 9.1832 0
2 8.68956 10.7348 0
1 10.4997 10.7338 0
2 11.4045 9.164 0
1 13.2012 9.16796 0
2 14.0952 10.7382 0
1 15.9003 10.7657 0
2 16.7986 9.18469 0
1 18.603 9.18509 0
2 19.516 10.7317 0
1 21.3063 10.7347 0
2 22.1983 9.18001 0
1 23.9908 9.18318 0
2 24.9331 10.73 0
1 26.7285 10.7009 0
2 27.5875 9.14926 0
1 29.3944 9.1658 0
2 30.2976 10.7147 0
1 32.0998 10.7043 0
2 32.9984 9.14197 0
1 34.804 9.1343 0
2 35.6999 10.7331 0
1 37.4919 10.7407 0
2 38.4151 9.19467 0
1 40.2001 9.18645 0
2 41.0796 10.7622 0
1 42.8937 10.7528 0
2 43.8295 9.17958 0
1 45.615 9.1948 0
2 46.4881 10.7867 0
1 48.3027 10.7917 0
2 49.2017 9.20425 0
1 50.9922 9.18103 0
2 51.9218 10.7598 0
1 -0.292187 13.8603 0
2 0.600034 12.3076 0
1 2.39711 12.2964 0
2 3.31597 13.865 0
1 5.11254 13.8543 0
2 5.97441 12.2922 0
1 7.8019 12.2942 0
2 8.70352 13.8678 0
1 10.4961 13.8618 0
2 11.3842 12.2937 0
1 13.1794 12.309 0
2 14.1035 13.8649 0
1 15.9091 13.8552 0
2 16.8076 12.3198 0
1 18.6128 12.3148 0
2 19.4791 13.8732 0
1 21.3047 13.8622 0
2 22.2146 12.2934 0
1 24.0081 12.2956 0
2 24.8997 13.8492 0
1 26.7055 13.8368 0
2 27.6196 12.2643 0
1 29.4198 12.278 0
2 30.2903 13.869 0
1 32.0629 13.8557 0
2 32.972 12.301 0
1 34.7884 12.3077 0
2 35.6697 13.8675 0
1 37.47 13.8705 0
2 38.3816 12.291 0
1 40.1864 12.3034 0
2 41.0811 13.8728 0
1 42.8702 13.8647 0
2 43.7801 12.3188 0
1 45.5778 12.3149 0
2 46.4876 13.8755 0
1 48.3046 13.8657 0
2 49.2128 12.3376 0
1 51.0275 12.3211 0
2 51.9252 13.8725 0
1 -0.294107 16.9503 0
2 0.611338 15.4043 0
1 2.42095 15.4153 0
2 3.32623 16.9796 0
1 5.10945 16.9767 0
2 6.00058 15.4153 0
1 7.79662 15.4263 0
2 8.72344 16.973 0
1 10.5264 16.9728 0
2 11.4153 15.4265 0
1 13.2138 15.4354 0
2 14.1041 16.9917 0
1 15.9059 16.9637 0
2 16.8027 15.4094 0
1 18.5945 15.4192 0
2 19.5007 16.973 0
1 21.3064 16.9596 0
2 22.2044 15.4045 0
1 24.007 15.4028 0
2 24.902 16.9575 0
1 26.7031 16.9651 0
2 27.6106 15.3946 0
1 29.3891 15.4099 0
2 30.2745 16.9396 0
1 32.0891 16.9477 0
2 32.9749 15.4039 0
1 34.7559 15.4122 0
2 35.6626 16.9652 0
1 37.4658 16.9635 0
2 38.3626 15.4052 0
1 40.1762 15.4241 0
2 41.0864 16.9666 0
1 42.8707 16.9813 0
2 43.7602 15.4248 0
1 45.5858 15.4212 0
2 46.5079 16.9859 0
1 48.3038 16.9867 0
2 49.2148 15.4273 0
1 51.0139 15.415 0
2 51.9274 16.9697 0
1 -0.296303 20.0815 0
2 0.617102 18.5296 0
1 2.42654 18.5318 0
2 3.32059 20.0899 0
1 5.10873 20.0681 0
2 5.99959 18.5323 0
1 7.83099 18.5297 0
2 8.71229 20.0795 0
1 10.5044 20.0868 0
2 11.4126 18.5279 0
1 13.1981 18.5519 0
2 14.1247 20.1016 0
1 15.9062 20.1034 0
2 16.7943 18.5349 0
1 18.6204 18.5359 0
2 19.5023 20.0919 0
1 21.3141 20.0761 0
2 22.2033 18.5066 0
1 24.001 18.5104 0
2 24.8942 20.0757 0
1 26.7004 20.0888 0
2 27.6078 18.5303 0
1 29.3747 18.5216 0
2 30.2856 20.1035 0
1 32.0782 20.0914 0
2 32.9727 18.5268 0
1 34.7527 18.5237 0
2 35.6626 20.0698 0
1 37.4574 20.0648 0
2 38.3658 18.5147 0
1 40.1708 18.5306 0
2 41.1121 20.0941 0
1 42.9165 20.1068 0
2 43.7948 18.5275 0
1 45.6037 18.5363 0
2 46.5077 20.0909 0
1 48.3151 20.1071 0
2 49.2435 18.5412 0
1 51.0399 18.5393 0
2 51.9256 20.0923 0
1 53.71 23.2075 0
2 0.597274 21.6257 0
1 2.41277 21.6507 0
2 3.32639 23.1834 0
1 5.14225 23.1678 0
2 6.01353 21.6196 0
1 7.80979 21.6274 0
2 8.69487 23.196 0
1 10.5142 23.1772 0
2 11.4059 21.6417 0
1 13.2131 21.6555 0
2 14.1084 23.2159 0
1 15.8973 23.2277 0
2 16.8062 21.677 0
1 18.6025 21.67 0
2 19.4837 23.2216 0
1 21.2901 23.2229 0
2 22.1932 21.6491 0
1 23.9918 21.6414 0
2 24.8892 23.2189 0
1 26.696 23.2114 0
2 27.5855 21.671 0
1 29.3953 21.6656 0
2 30.2894 23.2237 0
1 32.094 23.2074 0
2 32.9941 21.6469 0
1 34.779 21.6577 0
2 35.6845 23.2128 0
1 37.4803 23.1964 0
2 38.361 21.6224 0
1 40.1959 21.6392 0
2 41.0848 23.1991 0
1 42.8961 23.215 0
2 43.8021 21.6531 0
1 45.6121 21.6533 0
2 46.5154 23.2204 0
1 48.3204 23.221 0
2 49.2041 21.6608 0
1 51.0166 21.6498 0
2 51.9295 23.2101 0
1 53.7272 26.3153 0
2 0.621981 24.763 0
1 2.42586 24.7416 0
2 3.31216 26.3209 0
1 5.11366 26.3014 0
2 6.01787 24.7266 0
1 7.80638 24.7425 0
2 8.70313 26.2947 0
1 10.4928 26.2953 0
2 11.3981 24.736 0
1 13.2027 24.7587 0
2 14.0998 26.3138 0
1 15.8961 26.3215 0
2 16.7952 24.7803 0
1 18.5908 24.7866 0
2 19.5031 26.3308 0
1 21.2895 26.3304 0
2 22.1998 24.7925 0
1 23.99 24.7806 0
2 24.8907 26.33 0
1 26.6963 26.3454 0
2 27.5991 24.7843 0
1 29.3852 24.7662 0
2 30.2824 26.3158 0
1 32.0857 26.3168 0
2 33.0035 24.7658 0
1 34.7868 24.7568 0
2 35.6994 26.3095 0
1 37.4864 26.3168 0
2 38.4009 24.7682 0
1 40.1937 24.7663 0
2 41.1001 26.3429 0
1 42.9171 26.3307 0
2 43.8005 24.7717 0
1 45.6036 24.7854 0
2 46.4905 26.3349 0
1 48.3108 26.3182 0
2 49.2313 24.7763 0
1 51.0311 24.7779 0
2 51.9243 26.335 0
1 53.7151 29.4672 0
2 0.604024 27.883 0
1 2.39874 27.881 0
2 3.29623 29.4658 0
1 5.0993 29.4504 0
2 6.00734 27.889 0
1 7.81336 27.8723 0
2 8.72166 29.4294 0
1 10.5108 29.4499 0
2 11.4077 27.8631 0
1 13.2009 27.8721 0
2 14.0992 29.4512 0
1 15.9005 29.4552 0
2 16.7932 27.885 0
1 18.5966 27.8907 0
2 19.5072 29.4517 0
1 21.2993 29.4511 0
2 22.2006 27.8818 0
1 23.9913 27.8712 0
2 24.8906 29.4391 0
1 26.7008 29.4585 0
2 27.5876 27.8993 0
1 29.3805 27.8875 0
2 30.2762 29.4352 0
1 32.0877 29.4258 0
2 32.9871 27.8692 0
1 34.7865 27.8811 0
2 35.7087 29.4541 0
1 37.5017 29.4569 0
2 38.3926 27.8883 0
1 40.212 27.9109 0
2 41.0918 29.4672 0
1 42.9025 29.4851 0
2 43.7977 27.9083 0
1 45.606 27.9022 0
2 46.513 29.4544 0
1 48.3177 29.4459 0
2 49.2218 27.8755 0
1 51.0312 27.9134 0
2 51.9192 29.4648 0
