400
Atoms. Timestep: 0
1 4.97 2.45951 0
1 9.23 2.45951 0
1 13.49 2.45951 0
1 17.75 2.45951 0
1 22.01 2.45951 0
1 26.27 2.45951 0
1 30.53 2.45951 0
1 34.79 2.45951 0
1 39.05 2.45951 0
1 0.71 2.45951 0
1 4.97 4.91902 0
1 9.23 4.91902 0
1 13.49 4.91902 0
1 17.75 4.91902 0
1 22.01 4.91902 0
1 26.27 4.91902 0
1 30.53 4.91902 0
1 34.79 4.91902 0
1 39.05 4.91902 0
1 0.71 4.91902 0
1 4.97 7.37854 0
1 9.23 7.37854 0
1 13.49 7.37854 0
1 17.75 7.37854 0
1 22.01 7.37854 0
1 26.27 7.37854 0
1 30.53 7.37854 0
1 34.79 7.37854 0
1 39.05 7.37854 0
1 0.71 7.37854 0
1 4.97 9.83805 0
1 9.23 9.83805 0
1 13.49 9.83805 0
1 17.75 9.83805 0
1 22.01 9.83805 0
1 26.27 9.83805 0
1 30.53 9.83805 0
1 34.79 9.83805 0
1 39.05 9.83805 0
1 0.71 9.83805 0
1 4.97 12.2976 0
1 9.23 12.2976 0
1 13.49 12.2976 0
1 17.75 12.2976 0
1 22.01 12.2976 0
1 26.27 12.2976 0
1 30.53 12.2976 0
1 34.79 12.2976 0
1 39.05 12.2976 0
1 0.71 12.2976 0
1 4.97 14.7571 0
1 9.23 14.7571 0
1 13.49 14.7571 0
1 17.75 14.7571 0
1 22.01 14.7571 0
1 26.27 14.7571 0
1 30.53 14.7571 0
1 34.79 14.7571 0
1 39.05 14.7571 0
1 0.71 14.7571 0
1 4.97 17.2166 0
1 9.23 17.2166 0
1 13.49 17.2166 0
1 17.75 17.2166 0
1 22.01 17.2166 0
1 26.27 17.2166 0
1 30.53 17.2166 0
1 34.79 17.2166 0
1 39.05 17.2166 0
1 0.71 17.2166 0
1 4.97 19.6761 0
1 9.23 19.6761 0
1 13.49 19.6761 0
1 17.75 19.6761 0
1 22.01 19.6761 0
1 26.27 19.6761 0
1 30.53 19.6761 0
1 34.79 19.6761 0
1 39.05 19.6761 0
1 0.71 19.6761 0
1 4.97 22.1356 0
1 9.23 22.1356 0
1 13.49 22.1356 0
1 17.75 22.1356 0
1 22.01 22.1356 0
1 26.27 22.1356 0
1 30.53 22.1356 0
1 34.79 22.1356 0
1 39.05 22.1356 0
1 0.71 22.1356 0
1 4.97 0 0
1 9.23 0 0
1 13.49 0 0
1 17.75 0 0
1 22.01 0 0
1 26.27 0 0
1 30.53 0 0
1 34.79 0 0
1 39.05 0 0
1 0.71 0 0
1 4.26 3.68927 0
1 8.52 3.68927 0
1 12.78 3.68927 0
1 17.04 3.68927 0
1 21.3 3.68927 0
1 25.56 3.68927 0
1 29.82 3.68927 0
1 34.08 3.68927 0
1 38.34 3.68927 0
1 0 3.68927 0
1 4.26 6.14878 0
1 8.52 6.14878 0
1 12.78 6.14878 0
1 17.04 6.14878 0
1 21.3 6.14878 0
1 25.56 6.14878 0
1 29.82 6.14878 0
1 34.08 6.14878 0
1 38.34 6.14878 0
1 0 6.14878 0
1 4.26 8.60829 0
1 8.52 8.60829 0
1 12.78 8.60829 0
1 17.04 8.60829 0
1 21.3 8.60829 0
1 25.56 8.60829 0
1 29.82 8.60829 0
1 34.08 8.60829 0
1 38.34 8.60829 0
1 0 8.60829 0
1 4.26 11.0678 0
1 8.52 11.0678 0
1 12.78 11.0678 0
1 17.04 11.0678 0
1 21.3 11.0678 0
1 25.56 11.0678 0
1 29.82 11.0678 0
1 34.08 11.0678 0
1 38.34 11.0678 0
1 0 11.0678 0
1 4.26 13.5273 0
1 8.52 13.5273 0
1 12.78 13.5273 0
1 17.04 13.5273 0
1 21.3 13.5273 0
1 25.56 13.5273 0
1 29.82 13.5273 0
1 34.08 13.5273 0
1 38.34 13.5273 0
1 0 13.5273 0
1 4.26 15.9868 0
1 8.52 15.9868 0
1 12.78 15.9868 0
1 17.04 15.9868 0
1 21.3 15.9868 0
1 25.56 15.9868 0
1 29.82 15.9868 0
1 34.08 15.9868 0
1 38.34 15.9868 0
1 0 15.9868 0
1 4.26 18.4463 0
1 8.52 18.4463 0
1 12.78 18.4463 0
1 17.04 18.4463 0
1 21.3 18.4463 0
1 25.56 18.4463 0
1 29.82 18.4463 0
1 34.08 18.4463 0
1 38.34 18.4463 0
1 0 18.4463 0
1 4.26 20.9059 0
1 8.52 20.9059 0
1 12.78 20.9059 0
1 17.04 20.9059 0
1 21.3 20.9059 0
1 25.56 20.9059 0
1 29.82 20.9059 0
1 34.08 20.9059 0
1 38.34 20.9059 0
1 0 20.9059 0
1 4.26 23.3654 0
1 8.52 23.3654 0
1 12.78 23.3654 0
1 17.04 23.3654 0
1 21.3 23.3654 0
1 25.56 23.3654 0
1 29.82 23.3654 0
1 34.08 23.3654 0
1 38.34 23.3654 0
1 0 23.3654 0
1 4.26 1.22976 0
1 8.52 1.22976 0
1 12.78 1.22976 0
1 17.04 1.22976 0
1 21.3 1.22976 0
1 25.56 1.22976 0
1 29.82 1.22976 0
1 34.08 1.22976 0
1 38.34 1.22976 0
1 0 1.22976 0
1 7.1 3.68927 0
1 11.36 3.68927 0
1 15.62 3.68927 0
1 19.88 3.68927 0
1 24.14 3.68927 0
1 28.4 3.68927 0
1 32.66 3.68927 0
1 36.92 3.68927 0
1 41.18 3.68927 0
1 2.84 3.68927 0
1 7.1 6.14878 0
1 11.36 6.14878 0
1 15.62 6.14878 0
1 19.88 6.14878 0
1 24.14 6.14878 0
1 28.4 6.14878 0
1 32.66 6.14878 0
1 36.92 6.14878 0
1 41.18 6.14878 0
1 2.84 6.14878 0
1 7.1 8.60829 0
1 11.36 8.60829 0
1 15.62 8.60829 0
1 19.88 8.60829 0
1 24.14 8.60829 0
1 28.4 8.60829 0
1 32.66 8.60829 0
1 36.92 8.60829 0
1 41.18 8.60829 0
1 2.84 8.60829 0
1 7.1 11.0678 0
1 11.36 11.0678 0
1 15.62 11.0678 0
1 19.88 11.0678 0
1 24.14 11.0678 0
1 28.4 11.0678 0
1 32.66 11.0678 0
1 36.92 11.0678 0
1 41.18 11.0678 0
1 2.84 11.0678 0
1 7.1 13.5273 0
1 11.36 13.5273 0
1 15.62 13.5273 0
1 19.88 13.5273 0
1 24.14 13.5273 0
1 28.4 13.5273 0
1 32.66 13.5273 0
1 36.92 13.5273 0
1 41.18 13.5273 0
1 2.84 13.5273 0
1 7.1 15.9868 0
1 11.36 15.9868 0
1 15.62 15.9868 0
1 19.88 15.9868 0
1 24.14 15.9868 0
1 28.4 15.9868 0
1 32.66 15.9868 0
1 36.92 15.9868 0
1 41.18 15.9868 0
1 2.84 15.9868 0
1 7.1 18.4463 0
1 11.36 18.4463 0
1 15.62 18.4463 0
1 19.88 18.4463 0
1 24.14 18.4463 0
1 28.4 18.4463 0
1 32.66 18.4463 0
1 36.92 18.4463 0
1 41.18 18.4463 0
1 2.84 18.4463 0
1 7.1 20.9059 0
1 11.36 20.9059 0
1 15.62 20.9059 0
1 19.88 20.9059 0
1 24.14 20.9059 0
1 28.4 20.9059 0
1 32.66 20.9059 0
1 36.92 20.9059 0
1 41.18 20.9059 0
1 2.84 20.9059 0
1 7.1 23.3654 0
1 11.36 23.3654 0
1 15.62 23.3654 0
1 19.88 23.3654 0
1 24.14 23.3654 0
1 28.4 23.3654 0
1 32.66 23.3654 0
1 36.92 23.3654 0
1 41.18 23.3654 0
1 2.84 23.3654 0
1 7.1 1.22976 0
1 11.36 1.22976 0
1 15.62 1.22976 0
1 19.88 1.22976 0
1 24.14 1.22976 0
1 28.4 1.22976 0
1 32.66 1.22976 0
1 36.92 1.22976 0
1 41.18 1.22976 0
1 2.84 1.22976 0
1 6.39 2.45951 0
1 10.65 2.45951 0
1 14.91 2.45951 0
1 19.17 2.45951 0
1 23.43 2.45951 0
1 27.69 2.45951 0
1 31.95 2.45951 0
1 36.21 2.45951 0
1 40.47 2.45951 0
1 2.13 2.45951 0
1 6.39 4.91902 0
1 10.65 4.91902 0
1 14.91 4.91902 0
1 19.17 4.91902 0
1 23.43 4.91902 0
1 27.69 4.91902 0
1 31.95 4.91902 0
1 36.21 4.91902 0
1 40.47 4.91902 0
1 2.13 4.91902 0
1 6.39 7.37854 0
1 10.65 7.37854 0
1 14.91 7.37854 0
1 19.17 7.37854 0
1 23.43 7.37854 0
1 27.69 7.37854 0
1 31.95 7.37854 0
1 36.21 7.37854 0
1 40.47 7.37854 0
1 2.13 7.37854 0
1 6.39 9.83805 0
1 10.65 9.83805 0
1 14.91 9.83805 0
1 19.17 9.83805 0
1 23.43 9.83805 0
1 27.69 9.83805 0
1 31.95 9.83805 0
1 36.21 9.83805 0
1 40.47 9.83805 0
1 2.13 9.83805 0
1 6.39 12.2976 0
1 10.65 12.2976 0
1 14.91 12.2976 0
1 19.17 12.2976 0
1 23.43 12.2976 0
1 27.69 12.2976 0
1 31.95 12.2976 0
1 36.21 12.2976 0
1 40.47 12.2976 0
1 2.13 12.2976 0
1 6.39 14.7571 0
1 10.65 14.7571 0
1 14.91 14.7571 0
1 19.17 14.7571 0
1 23.43 14.7571 0
1 27.69 14.7571 0
1 31.95 14.7571 0
1 36.21 14.7571 0
1 40.47 14.7571 0
1 2.13 14.7571 0
1 6.39 17.2166 0
1 10.65 17.2166 0
1 14.91 17.2166 0
1 19.17 17.2166 0
1 23.43 17.2166 0
1 27.69 17.2166 0
1 31.95 17.2166 0
1 36.21 17.2166 0
1 40.47 17.2166 0
1 2.13 17.2166 0
1 6.39 19.6761 0
1 10.65 19.6761 0
1 14.91 19.6761 0
1 19.17 19.6761 0
1 23.43 19.6761 0
1 27.69 19.6761 0
1 31.95 19.6761 0
1 36.21 19.6761 0
1 40.47 19.6761 0
1 2.13 19.6761 0
1 6.39 22.1356 0
1 10.65 22.1356 0
1 14.91 22.1356 0
1 19.17 22.1356 0
1 23.43 22.1356 0
1 27.69 22.1356 0
1 31.95 22.1356 0
1 36.21 22.1356 0
1 40.47 22.1356 0
1 2.13 22.1356 0
1 6.39 0 0
1 10.65 0 0
1 14.91 0 0
1 19.17 0 0
1 23.43 0 0
1 27.69 0 0
1 31.95 0 0
1 36.21 0 0
1 40.47 0 0
1 2.13 0 0
400
Atoms. Timestep: 5000
1 4.96463 2.45826 0
1 9.21534 2.4721 0
1 13.4581 2.48146 0
1 17.7089 2.44317 0
1 21.9889 2.45875 0
1 26.2679 2.47567 0
1 30.5551 2.4602 0
1 34.8045 2.42638 0
1 39.0567 2.45585 0
1 0.733851 2.44091 0
1 4.94441 4.93335 0
1 9.21645 4.9266 0
1 13.4698 4.94072 0
1 17.7341 4.90875 0
1 21.9738 4.92553 0
1 26.265 4.92644 0
1 30.5687 4.91284 0
1 34.808 4.90453 0
1 39.0488 4.89288 0
1 0.718342 4.89769 0
1 4.95239 7.40579 0
1 9.1993 7.3804 0
1 13.4723 7.39851 0
1 17.7337 7.37617 0
1 21.9875 7.40553 0
1 26.2482 7.38839 0
1 30.5472 7.37838 0
1 34.7938 7.39061 0
1 39.0356 7.35988 0
1 0.702093 7.36993 0
1 4.93975 9.8689 0
1 9.20575 9.82972 0
1 13.4613 9.82431 0
1 17.7401 9.85333 0
1 22.0041 9.85062 0
1 26.2699 9.83746 0
1 30.5431 9.82493 0
1 34.7933 9.83412 0
1 39.0413 9.8228 0
1 0.683526 9.83876 0
1 4.94596 12.331 0
1 9.21386 12.3005 0
1 13.4825 12.2942 0
1 17.7424 12.3015 0
1 22.0161 12.3067 0
1 26.2895 12.2891 0
1 30.546 12.2863 0
1 34.7823 12.2871 0
1 39.0321 12.2705 0
1 0.695434 12.2969 0
1 4.96744 14.7711 0
1 9.22607 14.7597 0
1 13.4941 14.7463 0
1 17.7647 14.7493 0
1 22.0076 14.7674 0
1 26.2925 14.7488 0
1 30.5222 14.7559 0
1 34.7982 14.7466 0
1 39.0576 14.7404 0
1 0.682411 14.7518 0
1 4.98475 17.2293 0
1 9.2345 17.2106 0
1 13.5004 17.206 0
1 17.7317 17.2327 0
1 22.0271 17.2469 0
1 26.2792 17.2188 0
1 30.5501 17.246 0
1 34.8025 17.2078 0
1 39.0534 17.1995 0
1 0.692813 17.2045 0
1 4.99811 19.6539 0
1 9.23134 19.6851 0
1 13.4864 19.6784 0
1 17.756 19.6848 0
1 22.0372 19.7005 0
1 26.2981 19.6932 0
1 30.5317 19.7122 0
1 34.8229 19.676 0
1 39.0803 19.6726 0
1 0.706019 19.6354 0
1 4.99329 22.1101 0
1 9.24494 22.1404 0
1 13.4731 22.1382 0
1 17.7323 22.1217 0
1 22.0191 22.1225 0
1 26.2938 22.1509 0
1 30.5546 22.1733 0
1 34.8172 22.125 0
1 39.0818 22.1426 0
1 0.709639 22.1126 0
1 4.98071 -0.00439008 0
1 9.23155 0.029409 0
1 13.4585 0.00969951 0
1 17.7092 -0.00695456 0
1 21.9918 -0.0170869 0
1 26.274 -0.00718339 0
1 30.5529 0.0185086 0
1 34.8316 -0.0167325 0
1 39.0802 -0.0200439 0
1 0.702066 -0.0172478 0
1 4.2666 3.68217 0
1 8.48909 3.69743 0
1 12.7586 3.71223 0
1 17.0068 3.67968 0
1 21.2722 3.70257 0
1 25.5457 3.69843 0
1 29.8278 3.70014 0
1 34.0994 3.67619 0
1 38.3382 3.67854 0
1 0.00219703 3.67721 0
1 4.24408 6.16255 0
1 8.49558 6.16155 0
1 12.7509 6.17284 0
1 17.0325 6.15795 0
1 21.2813 6.16764 0
1 25.5523 6.15617 0
1 29.8477 6.14983 0
1 34.1027 6.1534 0
1 38.3379 6.13593 0
1 -0.0113395 6.14666 0
1 4.23849 8.63799 0
1 8.49876 8.60903 0
1 12.7522 8.60928 0
1 17.0386 8.60604 0
1 21.291 8.63824 0
1 25.5667 8.61848 0
1 29.8478 8.59591 0
1 34.0898 8.60811 0
1 38.3421 8.58628 0
1 -0.0133728 8.60495 0
1 4.22279 11.0985 0
1 8.50583 11.0566 0
1 12.767 11.0604 0
1 17.0181 11.0741 0
1 21.2957 11.0815 0
1 25.5603 11.0762 0
1 29.8395 11.0448 0
1 34.0788 11.0448 0
1 38.323 11.052 0
1 -0.0090739 11.0683 0
1 4.25227 13.5656 0
1 8.50492 13.5363 0
1 12.7705 13.5232 0
1 17.0421 13.5349 0
1 21.3067 13.5445 0
1 25.5746 13.5366 0
1 29.8256 13.5099 0
1 34.0833 13.5099 0
1 38.3266 13.5234 0
1 -0.0116868 13.5103 0
1 4.26685 16.0017 0
1 8.52628 15.9906 0
1 12.7955 15.9856 0
1 17.0481 15.9871 0
1 21.2997 16.0187 0
1 25.5802 15.9956 0
1 29.8386 16.0116 0
1 34.1003 15.9821 0
1 38.3421 15.9832 0
1 -0.0136864 15.9605 0
1 4.27392 18.4241 0
1 8.55424 18.4406 0
1 12.7642 18.4425 0
1 17.0369 18.4806 0
1 21.3098 18.4627 0
1 25.5739 18.4495 0
1 29.8373 18.4833 0
1 34.1131 18.4398 0
1 38.3548 18.443 0
1 -0.0270562 18.4205 0
1 4.27627 20.8639 0
1 8.53676 20.9134 0
1 12.7893 20.9088 0
1 17.0048 20.9034 0
1 21.3045 20.9149 0
1 25.5914 20.9259 0
1 29.8339 20.9371 0
1 34.106 20.8907 0
1 38.3895 20.9018 0
1 -0.00187254 20.8714 0
1 4.27328 23.3569 0
1 8.54731 23.3893 0
1 12.7485 23.3859 0
1 16.9994 23.3465 0
1 21.3059 23.3552 0
1 25.5788 23.3579 0
1 29.8294 23.4013 0
1 34.1119 23.3557 0
1 38.3718 23.3573 0
1 0.00457181 23.3541 0
1 4.25707 1.20967 0
1 8.51482 1.26246 0
1 12.758 1.23993 0
1 16.9932 1.22362 0
1 21.2844 1.22348 0
1 25.5691 1.22948 0
1 29.8335 1.2407 0
1 34.1067 1.19643 0
1 38.3615 1.20832 0
1 0.0108018 1.22061 0
1 7.0842 3.69438 0
1 11.3405 3.71381 0
1 15.5834 3.68793 0
1 19.8573 3.66857 0
1 24.1212 3.69265 0
1 28.3985 3.74028 0
1 32.6853 3.66445 0
1 36.9144 3.68848 0
1 41.1886 3.67972 0
1 2.85607 3.66716 0
1 7.07489 6.15491 0
1 11.3389 6.17961 0
1 15.6096 6.16451 0
1 19.8669 6.1584 0
1 24.1117 6.15784 0
1 28.4186 6.15054 0
1 32.6676 6.14269 0
1 36.9294 6.13291 0
1 41.1837 6.12891 0
1 2.83139 6.14811 0
1 7.06714 8.62015 0
1 11.3395 8.61336 0
1 15.6144 8.60957 0
1 19.8741 8.61456 0
1 24.145 8.62559 0
1 28.4088 8.60675 0
1 32.666 8.59424 0
1 36.9174 8.59884 0
1 41.1837 8.58191 0
1 2.82603 8.62795 0
1 7.07393 11.0738 0
1 11.3295 11.0652 0
1 15.6079 11.0541 0
1 19.8862 11.0765 0
1 24.1418 11.0923 0
1 28.4192 11.0669 0
1 32.6691 11.0357 0
1 36.9171 11.0615 0
1 41.1737 11.0576 0
1 2.80719 11.082 0
1 7.08208 13.5287 0
1 11.3683 13.5395 0
1 15.6302 13.52 0
1 19.8797 13.531 0
1 24.1589 13.5511 0
1 28.4025 13.5287 0
1 32.6602 13.5101 0
1 36.909 13.53 0
1 41.1807 13.4951 0
1 2.82066 13.5318 0
1 7.1012 15.9915 0
1 11.3794 15.9998 0
1 15.6311 15.9714 0
1 19.8703 16.0126 0
1 24.1522 16.0043 0
1 28.4305 15.9968 0
1 32.6728 15.983 0
1 36.9219 15.9866 0
1 41.1726 15.9618 0
1 2.8284 15.9728 0
1 7.13157 18.4454 0
1 11.3488 18.45 0
1 15.614 18.4423 0
1 19.8684 18.4863 0
1 24.1443 18.4573 0
1 28.4178 18.459 0
1 32.6801 18.4591 0
1 36.9391 18.4315 0
1 41.1721 18.4125 0
1 2.84352 18.4336 0
1 7.12242 20.8989 0
1 11.3719 20.9195 0
1 15.594 20.8974 0
1 19.8906 20.9192 0
1 24.1673 20.9011 0
1 28.416 20.9484 0
1 32.6674 20.9248 0
1 36.9584 20.9026 0
1 41.1956 20.8737 0
1 2.84311 20.8561 0
1 7.12498 23.3554 0
1 11.3463 23.3837 0
1 15.5879 23.3418 0
1 19.8774 23.3615 0
1 24.1478 23.3323 0
1 28.4116 23.4054 0
1 32.6856 23.364 0
1 36.9471 23.3603 0
1 41.1809 23.3397 0
1 2.84617 23.334 0
1 7.10618 1.22127 0
1 11.3325 1.26306 0
1 15.5695 1.23515 0
1 19.8527 1.21165 0
1 24.1329 1.20503 0
1 28.3981 1.25623 0
1 32.6919 1.21408 0
1 36.9476 1.2122 0
1 41.1915 1.22544 0
1 2.8467 1.20201 0
1 6.37881 2.45557 0
1 10.6368 2.48481 0
1 14.8829 2.46058 0
1 19.1351 2.43367 0
1 23.4079 2.44491 0
1 27.6883 2.49821 0
1 31.9943 2.44433 0
1 36.2211 2.45798 0
1 40.4774 2.45523 0
1 2.15192 2.43932 0
1 6.36503 4.91634 0
1 10.6293 4.94724 0
1 14.8819 4.91937 0
1 19.1512 4.93295 0
1 23.3977 4.91869 0
1 27.6921 4.93276 0
1 31.974 4.90088 0
1 36.2343 4.91432 0
1 40.4656 4.89896 0
1 2.13405 4.91751 0
1 6.37879 7.37139 0
1 10.6212 7.39118 0
1 14.9035 7.38341 0
1 19.1537 7.39335 0
1 23.4169 7.39374 0
1 27.6884 7.3813 0
1 31.9583 7.3647 0
1 36.2172 7.37997 0
1 40.4609 7.36872 0
1 2.12377 7.39335 0
1 6.34378 9.8403 0
1 10.6271 9.84922 0
1 14.8975 9.83375 0
1 19.1643 9.84993 0
1 23.4287 9.86026 0
1 27.6794 9.84548 0
1 31.9579 9.81282 0
1 36.2116 9.83596 0
1 40.48 9.81925 0
1 2.09567 9.84964 0
1 6.37059 12.2937 0
1 10.6384 12.2974 0
1 14.9027 12.3027 0
1 19.1679 12.2934 0
1 23.4302 12.3264 0
1 27.7054 12.286 0
1 31.9471 12.2614 0
1 36.2067 12.2832 0
1 40.4473 12.2797 0
1 2.11039 12.3206 0
1 6.36891 14.767 0
1 10.6482 14.7762 0
1 14.9095 14.7448 0
1 19.1653 14.7556 0
1 23.441 14.7701 0
1 27.7067 14.7453 0
1 31.9568 14.7486 0
1 36.2092 14.761 0
1 40.479 14.7328 0
1 2.10146 14.7539 0
1 6.39235 17.2247 0
1 10.6577 17.2156 0
1 14.9265 17.206 0
1 19.1765 17.2505 0
1 23.436 17.2319 0
1 27.7138 17.2305 0
1 31.9664 17.229 0
1 36.2216 17.1997 0
1 40.4669 17.1987 0
1 2.12733 17.2136 0
1 6.43065 19.6733 0
1 10.6475 19.687 0
1 14.8982 19.6629 0
1 19.1852 19.7021 0
1 23.4458 19.7078 0
1 27.7107 19.7041 0
1 31.965 19.6818 0
1 36.2412 19.6672 0
1 40.4965 19.6615 0
1 2.11508 19.6614 0
1 6.41901 22.1243 0
1 10.6655 22.1483 0
1 14.8764 22.1267 0
1 19.1596 22.1365 0
1 23.4473 22.1202 0
1 27.7094 22.1773 0
1 31.9761 22.1507 0
1 36.2338 22.1234 0
1 40.49 22.1098 0
1 2.15694 22.1058 0
1 6.39489 -0.0184224 0
1 10.6461 0.0235872 0
1 14.8728 0.000552737 0
1 19.1545 -0.0132842 0
1 23.4201 -0.030037 0
1 27.7043 0.0197467 0
1 31.9804 -0.00663265 0
1 36.2465 -0.0231721 0
1 40.4864 -0.0175111 0
1 2.12852 -0.0239009 0
400
Atoms. Timestep: 10000
1 4.94874 2.45326 0
1 9.24912 2.4445 0
1 13.5167 2.45046 0
1 17.7826 2.47025 0
1 22.0289 2.45202 0
1 26.2979 2.44593 0
1 30.5252 2.46303 0
1 34.7737 2.47376 0
1 39.0454 2.46094 0
1 0.679483 2.42714 0
1 4.958 4.89623 0
1 9.26389 4.91034 0
1 13.5272 4.91823 0
1 17.7739 4.93059 0
1 22.029 4.92109 0
1 26.2772 4.93793 0
1 30.5228 4.90533 0
1 34.7677 4.92567 0
1 39.0193 4.91738 0
1 0.69806 4.90811 0
1 4.96657 7.36102 0
1 9.2627 7.3623 0
1 13.5133 7.37734 0
1 17.7874 7.39662 0
1 22 7.39256 0
1 26.2795 7.38373 0
1 30.4985 7.38596 0
1 34.782 7.38018 0
1 39.0477 7.38498 0
1 0.708014 7.37353 0
1 4.99323 9.82076 0
1 9.263 9.82827 0
1 13.5086 9.84151 0
1 17.754 9.87938 0
1 22.0035 9.85549 0
1 26.2469 9.85349 0
1 30.518 9.8406 0
1 34.8025 9.82989 0
1 39.0495 9.84207 0
1 0.711902 9.83205 0
1 5.00805 12.3017 0
1 9.24909 12.2774 0
1 13.5098 12.3229 0
1 17.7351 12.3209 0
1 21.9904 12.3519 0
1 26.2573 12.3039 0
1 30.5527 12.3117 0
1 34.7886 12.2759 0
1 39.0417 12.3011 0
1 0.725883 12.3075 0
1 4.98263 14.7511 0
1 9.25245 14.7512 0
1 13.4802 14.7716 0
1 17.714 14.7972 0
1 21.9817 14.8208 0
1 26.2736 14.7554 0
1 30.524 14.7597 0
1 34.7931 14.7352 0
1 39.0621 14.7543 0
1 0.711039 14.7645 0
1 4.95748 17.2179 0
1 9.22003 17.2093 0
1 13.4786 17.2289 0
1 17.7103 17.2362 0
1 21.9824 17.2376 0
1 26.2516 17.2172 0
1 30.5526 17.2027 0
1 34.7966 17.1985 0
1 39.037 17.2129 0
1 0.70536 17.2228 0
1 4.97636 19.6638 0
1 9.22032 19.6601 0
1 13.4823 19.6678 0
1 17.7312 19.6807 0
1 21.9899 19.6705 0
1 26.2847 19.6563 0
1 30.5274 19.6459 0
1 34.7696 19.6378 0
1 39.01 19.6577 0
1 0.697818 19.6827 0
1 4.952 22.1618 0
1 9.23156 22.1485 0
1 13.5208 22.1458 0
1 17.7726 22.1425 0
1 21.9927 22.1365 0
1 26.2833 22.1213 0
1 30.5251 22.1419 0
1 34.7355 22.1144 0
1 39.0244 22.1448 0
1 0.696891 22.1583 0
1 4.95012 0.00289729 0
1 9.23492 -0.0072339 0
1 13.5311 0.00347306 0
1 17.7567 0.0135695 0
1 22.0378 0.0148351 0
1 26.2692 -0.0255384 0
1 30.525 -0.00353971 0
1 34.7773 -0.0188434 0
1 39.0133 -0.0124051 0
1 0.69306 -0.00559666 0
1 4.24856 3.68278 0
1 8.53536 3.67335 0
1 12.8203 3.69596 0
1 17.07 3.71587 0
1 21.3134 3.69767 0
1 25.5875 3.68635 0
1 29.8078 3.68518 0
1 34.0841 3.69816 0
1 38.3219 3.69068 0
1 -0.0256578 3.6541 0
1 4.26645 6.10952 0
1 8.53065 6.13223 0
1 12.8138 6.13005 0
1 17.0598 6.1487 0
1 21.3231 6.16006 0
1 25.5574 6.14814 0
1 29.7962 6.13997 0
1 34.0697 6.15274 0
1 38.3249 6.17294 0
1 -0.010577 6.13373 0
1 4.28196 8.5985 0
1 8.57195 8.59454 0
1 12.7964 8.58931 0
1 17.0779 8.61999 0
1 21.3211 8.63325 0
1 25.5584 8.61639 0
1 29.7911 8.62001 0
1 34.0867 8.6106 0
1 38.3453 8.61586 0
1 -0.00147252 8.60181 0
1 4.29623 11.0655 0
1 8.56326 11.0315 0
1 12.8082 11.068 0
1 17.032 11.1125 0
1 21.2934 11.1147 0
1 25.5531 11.0833 0
1 29.8225 11.0697 0
1 34.0625 11.0547 0
1 38.3375 11.0671 0
1 -0.000616684 11.0659 0
1 4.29827 13.5235 0
1 8.54332 13.5299 0
1 12.7892 13.532 0
1 17.0332 13.557 0
1 21.2778 13.5693 0
1 25.557 13.52 0
1 29.8101 13.533 0
1 34.0779 13.4992 0
1 38.3389 13.5376 0
1 0.00891586 13.5384 0
1 4.25428 15.9751 0
1 8.52814 15.9748 0
1 12.7583 15.9916 0
1 17.0231 16.0054 0
1 21.2532 16.0194 0
1 25.5493 15.9826 0
1 29.8178 15.9806 0
1 34.0896 15.9675 0
1 38.3506 15.9675 0
1 -0.00335141 16.0014 0
1 4.27622 18.4385 0
1 8.51661 18.4222 0
1 12.7641 18.4362 0
1 17.0189 18.4639 0
1 21.2627 18.4484 0
1 25.5303 18.4486 0
1 29.8254 18.4138 0
1 34.0821 18.4046 0
1 38.3152 18.4309 0
1 -0.0139043 18.4667 0
1 4.26248 20.8881 0
1 8.51387 20.9045 0
1 12.7995 20.9124 0
1 17.0339 20.9101 0
1 21.2799 20.9083 0
1 25.5827 20.8938 0
1 29.8205 20.9039 0
1 34.049 20.8603 0
1 38.3103 20.9075 0
1 -0.0208861 20.9372 0
1 4.23969 23.3931 0
1 8.52167 23.3782 0
1 12.8003 23.3905 0
1 17.0674 23.3783 0
1 21.2972 23.3912 0
1 25.571 23.3507 0
1 29.8163 23.3636 0
1 34.0394 23.357 0
1 38.2827 23.3665 0
1 -0.000872816 23.3741 0
1 4.23809 1.22617 0
1 8.52093 1.21836 0
1 12.7994 1.21906 0
1 17.0655 1.22804 0
1 21.3196 1.24036 0
1 25.5831 1.21714 0
1 29.8259 1.23299 0
1 34.0702 1.22321 0
1 38.3197 1.23172 0
1 -0.0392985 1.20925 0
1 7.11122 3.68695 0
1 11.4042 3.67621 0
1 15.6373 3.6958 0
1 19.8993 3.70326 0
1 24.173 3.66951 0
1 28.3924 3.69379 0
1 32.6537 3.7046 0
1 36.917 3.68246 0
1 41.1697 3.67066 0
1 2.81721 3.65681 0
1 7.10631 6.1198 0
1 11.3872 6.1358 0
1 15.6357 6.13968 0
1 19.9029 6.17988 0
1 24.1402 6.16118 0
1 28.3799 6.1438 0
1 32.6464 6.15027 0
1 36.9195 6.15702 0
1 41.1815 6.13834 0
1 2.8387 6.14034 0
1 7.13516 8.58016 0
1 11.3865 8.59458 0
1 15.6616 8.60404 0
1 19.8978 8.6464 0
1 24.1335 8.62765 0
1 28.373 8.59431 0
1 32.6619 8.60488 0
1 36.9341 8.61535 0
1 41.1822 8.63182 0
1 2.85759 8.6175 0
1 7.14192 11.0312 0
1 11.3753 11.0561 0
1 15.6199 11.083 0
1 19.8771 11.1229 0
1 24.1354 11.0915 0
1 28.3966 11.0777 0
1 32.646 11.0388 0
1 36.924 11.0542 0
1 41.1976 11.059 0
1 2.87274 11.0629 0
1 7.12633 13.5265 0
1 11.3652 13.5101 0
1 15.6301 13.5517 0
1 19.8638 13.5895 0
1 24.1162 13.5533 0
1 28.3804 13.5266 0
1 32.6584 13.5026 0
1 36.9072 13.5222 0
1 41.1861 13.5253 0
1 2.86719 13.5306 0
1 7.09745 15.991 0
1 11.378 15.9816 0
1 15.6115 16.0138 0
1 19.8244 16.0371 0
1 24.1289 15.9909 0
1 28.3966 15.9749 0
1 32.6722 15.9554 0
1 36.9285 15.9716 0
1 41.1767 15.9932 0
1 2.83717 15.9931 0
1 7.10551 18.4462 0
1 11.3489 18.4527 0
1 15.6179 18.4484 0
1 19.8461 18.4761 0
1 24.1255 18.4346 0
1 28.4034 18.4196 0
1 32.6676 18.4083 0
1 36.9076 18.4401 0
1 41.1594 18.4525 0
1 2.85928 18.4473 0
1 7.08471 20.8965 0
1 11.3435 20.919 0
1 15.6227 20.9072 0
1 19.8582 20.9207 0
1 24.1424 20.8757 0
1 28.3963 20.8967 0
1 32.6336 20.8785 0
1 36.8917 20.8927 0
1 41.1522 20.898 0
1 2.82152 20.9224 0
1 7.06998 23.3589 0
1 11.3764 23.3785 0
1 15.6298 23.3607 0
1 19.8887 23.3902 0
1 24.1362 23.3549 0
1 28.4012 23.3699 0
1 32.6386 23.3664 0
1 36.8614 23.3466 0
1 41.1534 23.3498 0
1 2.82438 23.3932 0
1 7.0846 1.20737 0
1 11.3916 1.22982 0
1 15.6623 1.2427 0
1 19.9044 1.24691 0
1 24.1819 1.20651 0
1 28.3919 1.22915 0
1 32.6434 1.24171 0
1 36.896 1.23677 0
1 41.1624 1.20419 0
1 2.80923 1.21825 0
1 6.37559 2.4497 0
1 10.6842 2.43348 0
1 14.9497 2.43604 0
1 19.1965 2.46249 0
1 23.453 2.44976 0
1 27.7137 2.46416 0
1 31.9524 2.46583 0
1 36.2022 2.46155 0
1 40.4659 2.44767 0
1 2.10288 2.45078 0
1 6.3929 4.89588 0
1 10.6799 4.91394 0
1 14.9417 4.91192 0
1 19.1901 4.94319 0
1 23.4483 4.90566 0
1 27.6779 4.91909 0
1 31.9593 4.91346 0
1 36.2028 4.92917 0
1 40.4306 4.91088 0
1 2.12391 4.89297 0
1 6.38666 7.35327 0
1 10.6954 7.36407 0
1 14.9453 7.36815 0
1 19.206 7.41998 0
1 23.4232 7.39897 0
1 27.6927 7.36223 0
1 31.9292 7.37084 0
1 36.211 7.38308 0
1 40.4604 7.39575 0
1 2.13842 7.39107 0
1 6.4352 9.81866 0
1 10.6853 9.81909 0
1 14.9247 9.84447 0
1 19.1904 9.88404 0
1 23.4359 9.85132 0
1 27.6782 9.84599 0
1 31.9378 9.82488 0
1 36.2019 9.83461 0
1 40.4776 9.85856 0
1 2.15106 9.83891 0
1 6.43228 12.2723 0
1 10.6706 12.2802 0
1 14.921 12.3365 0
1 19.1469 12.34 0
1 23.4052 12.3242 0
1 27.6724 12.3047 0
1 31.9632 12.2739 0
1 36.2067 12.289 0
1 40.4705 12.275 0
1 2.16195 12.2929 0
1 6.40588 14.7628 0
1 10.6841 14.7374 0
1 14.906 14.7878 0
1 19.1235 14.793 0
1 23.4043 14.7703 0
1 27.6816 14.774 0
1 31.9397 14.7305 0
1 36.2125 14.7507 0
1 40.4743 14.7642 0
1 2.15414 14.7529 0
1 6.3919 17.2158 0
1 10.6534 17.2093 0
1 14.8928 17.2304 0
1 19.1198 17.2526 0
1 23.4072 17.2267 0
1 27.684 17.2178 0
1 31.9659 17.1832 0
1 36.2111 17.2148 0
1 40.464 17.2168 0
1 2.12646 17.229 0
1 6.38909 19.6841 0
1 10.6479 19.6821 0
1 14.9063 19.6767 0
1 19.1349 19.6889 0
1 23.4175 19.6501 0
1 27.7109 19.6676 0
1 31.9459 19.6375 0
1 36.1982 19.6727 0
1 40.433 19.6588 0
1 2.1219 19.6775 0
1 6.37863 22.1317 0
1 10.6638 22.1495 0
1 14.9346 22.1564 0
1 19.1732 22.1414 0
1 23.4189 22.1199 0
1 27.7069 22.1357 0
1 31.9285 22.1368 0
1 36.1568 22.1106 0
1 40.427 22.1282 0
1 2.11296 22.1719 0
1 6.36318 -0.00818158 0
1 10.6692 -0.000664134 0
1 14.9429 0.00352371 0
1 19.1804 0.0251748 0
1 23.4673 -0.0207052 0
1 27.6739 -0.0110395 0
1 31.947 -0.000793463 0
1 36.1922 -0.00780647 0
1 40.4288 -0.0140951 0
1 2.10149 0.00468483 0
400
Atoms. Timestep: 15000
1 4.97734 2.44756 0
1 9.24006 2.4755 0
1 13.4862 2.45255 0
1 17.7544 2.41801 0
1 22.0059 2.44211 0
1 26.2477 2.45026 0
1 30.5434 2.45328 0
1 34.7746 2.45826 0
1 39.0528 2.45869 0
1 0.692572 2.44609 0
1 4.98187 4.90778 0
1 9.24897 4.94308 0
1 13.5062 4.93727 0
1 17.7464 4.89489 0
1 21.9999 4.91509 0
1 26.249 4.91115 0
1 30.5372 4.94027 0
1 34.7798 4.92907 0
1 39.0425 4.90936 0
1 0.713206 4.8737 0
1 4.9632 7.38381 0
1 9.22352 7.40386 0
1 13.5103 7.39058 0
1 17.7541 7.38163 0
1 22.0337 7.38887 0
1 26.2769 7.36406 0
1 30.5342 7.38723 0
1 34.7889 7.36525 0
1 39.0525 7.37453 0
1 0.697417 7.36513 0
1 4.97556 9.8215 0
1 9.22677 9.8548 0
1 13.4865 9.85104 0
1 17.7542 9.83342 0
1 22.0204 9.84743 0
1 26.2752 9.82642 0
1 30.5084 9.84441 0
1 34.795 9.81738 0
1 39.0581 9.84876 0
1 0.680294 9.84495 0
1 4.95702 12.3185 0
1 9.23455 12.3069 0
1 13.5167 12.286 0
1 17.7546 12.3049 0
1 22.0433 12.2862 0
1 26.2812 12.2745 0
1 30.5274 12.3037 0
1 34.7858 12.312 0
1 39.0123 12.2984 0
1 0.674363 12.3087 0
1 4.97169 14.7803 0
1 9.25914 14.7724 0
1 13.5101 14.7522 0
1 17.7687 14.754 0
1 22.0306 14.7504 0
1 26.2774 14.7392 0
1 30.512 14.7698 0
1 34.7597 14.7804 0
1 39.0316 14.7478 0
1 0.661416 14.7331 0
1 4.94216 17.2089 0
1 9.25875 17.212 0
1 13.5223 17.2296 0
1 17.7666 17.1915 0
1 22.0291 17.2161 0
1 26.2624 17.2421 0
1 30.5195 17.2281 0
1 34.7619 17.2145 0
1 39.0097 17.2231 0
1 0.680724 17.1933 0
1 4.96414 19.6847 0
1 9.24417 19.6741 0
1 13.4996 19.6894 0
1 17.7458 19.6616 0
1 22.024 19.6746 0
1 26.2793 19.6966 0
1 30.5271 19.6948 0
1 34.7615 19.6716 0
1 39.0429 19.6776 0
1 0.691922 19.6582 0
1 4.96235 22.1203 0
1 9.2407 22.1436 0
1 13.4755 22.1696 0
1 17.7585 22.1195 0
1 22.0008 22.119 0
1 26.2627 22.1578 0
1 30.5286 22.1724 0
1 34.7889 22.1306 0
1 39.0445 22.1509 0
1 0.73233 22.1191 0
1 4.98056 -0.0200736 0
1 9.22215 0.0195407 0
1 13.4704 -0.00332997 0
1 17.76 -0.0119858 0
1 21.9922 -0.0263162 0
1 26.266 -0.0129148 0
1 30.523 0.0264799 0
1 34.7933 0.0075329 0
1 39.0288 0.00543723 0
1 0.721027 -0.0251672 0
1 4.27535 3.68241 0
1 8.53321 3.71569 0
1 12.7877 3.70033 0
1 17.0419 3.64908 0
1 21.2923 3.6888 0
1 25.5443 3.68218 0
1 29.8324 3.68341 0
1 34.0543 3.68363 0
1 38.3495 3.67218 0
1 -0.0264928 3.66909 0
1 4.25035 6.14193 0
1 8.52156 6.16169 0
1 12.7825 6.16698 0
1 17.0461 6.14355 0
1 21.3153 6.1494 0
1 25.5517 6.13657 0
1 29.819 6.16254 0
1 34.0642 6.13248 0
1 38.3219 6.15228 0
1 0.0127967 6.12181 0
1 4.25044 8.60668 0
1 8.51217 8.63384 0
1 12.7766 8.61642 0
1 17.0296 8.61877 0
1 21.3118 8.61501 0
1 25.5748 8.5905 0
1 29.8225 8.60815 0
1 34.0851 8.58614 0
1 38.3582 8.60863 0
1 -0.00677905 8.60668 0
1 4.25473 11.0622 0
1 8.53152 11.0834 0
1 12.7994 11.0699 0
1 17.0329 11.0775 0
1 21.3061 11.0789 0
1 25.5708 11.0536 0
1 29.8171 11.0703 0
1 34.0852 11.0588 0
1 38.3258 11.0768 0
1 -0.0347417 11.0665 0
1 4.25732 13.5456 0
1 8.53576 13.5378 0
1 12.8035 13.5197 0
1 17.0461 13.5311 0
1 21.3243 13.5351 0
1 25.5605 13.4868 0
1 29.8129 13.5429 0
1 34.0576 13.5442 0
1 38.3085 13.5427 0
1 -0.0499185 13.5153 0
1 4.23894 15.9936 0
1 8.52443 15.9782 0
1 12.8179 15.9927 0
1 17.0668 15.9696 0
1 21.3163 15.9769 0
1 25.5638 15.9868 0
1 29.817 15.995 0
1 34.0524 15.9933 0
1 38.3307 15.9948 0
1 -0.0308434 15.9589 0
1 4.24368 18.4647 0
1 8.54083 18.4244 0
1 12.8133 18.4445 0
1 17.053 18.4427 0
1 21.3076 18.4479 0
1 25.5626 18.4695 0
1 29.8173 18.4669 0
1 34.0625 18.4499 0
1 38.3313 18.4582 0
1 -0.0343341 18.425 0
1 4.25652 20.8981 0
1 8.53008 20.9095 0
1 12.7927 20.9172 0
1 17.0439 20.8895 0
1 21.3077 20.9027 0
1 25.5545 20.9158 0
1 29.8245 20.9211 0
1 34.0524 20.9025 0
1 38.3466 20.9147 0
1 0.00301025 20.8763 0
1 4.27317 23.3499 0
1 8.53033 23.361 0
1 12.7612 23.3838 0
1 17.053 23.3524 0
1 21.3047 23.3324 0
1 25.5503 23.3631 0
1 29.8114 23.403 0
1 34.0921 23.3561 0
1 38.3278 23.3728 0
1 0.0170941 23.3505 0
1 4.25352 1.20225 0
1 8.5295 1.23422 0
1 12.7723 1.23518 0
1 17.0447 1.2087 0
1 21.3043 1.21118 0
1 25.5439 1.23142 0
1 29.8117 1.24304 0
1 34.0756 1.23608 0
1 38.3449 1.23607 0
1 -0.00337679 1.19637 0
1 7.10802 3.70169 0
1 11.3644 3.72004 0
1 15.6246 3.65706 0
1 19.871 3.68148 0
1 24.1122 3.68185 0
1 28.3974 3.70006 0
1 32.6522 3.69451 0
1 36.9236 3.68252 0
1 41.1718 3.67853 0
1 2.83407 3.67284 0
1 7.1094 6.1663 0
1 11.3576 6.1942 0
1 15.631 6.14462 0
1 19.8903 6.14753 0
1 24.1332 6.13641 0
1 28.4002 6.14809 0
1 32.6518 6.15192 0
1 36.9058 6.16387 0
1 41.1879 6.16207 0
1 2.83386 6.13332 0
1 7.09504 8.61599 0
1 11.3675 8.64568 0
1 15.6195 8.59947 0
1 19.8819 8.6171 0
1 24.1619 8.60255 0
1 28.4138 8.58979 0
1 32.6724 8.61087 0
1 36.9362 8.60292 0
1 41.1704 8.62148 0
1 2.83017 8.60061 0
1 7.10585 11.078 0
1 11.3717 11.081 0
1 15.6137 11.074 0
1 19.8843 11.0585 0
1 24.1589 11.0576 0
1 28.4015 11.0564 0
1 32.6535 11.0755 0
1 36.9085 11.0691 0
1 41.1718 11.0888 0
1 2.82291 11.0781 0
1 7.11782 13.5428 0
1 11.3786 13.5212 0
1 15.6302 13.5223 0
1 19.9081 13.5098 0
1 24.142 13.504 0
1 28.3975 13.5259 0
1 32.6566 13.5129 0
1 36.8999 13.5423 0
1 41.1461 13.5267 0
1 2.82108 13.5191 0
1 7.11341 16.003 0
1 11.4161 15.9953 0
1 15.6516 15.9748 0
1 19.9147 15.9815 0
1 24.1457 15.9858 0
1 28.3958 15.9954 0
1 32.6375 15.9834 0
1 36.9059 16.0012 0
1 41.1655 15.9894 0
1 2.83314 15.988 0
1 7.10539 18.4577 0
1 11.3727 18.4483 0
1 15.6344 18.4374 0
1 19.8805 18.4391 0
1 24.1294 18.4562 0
1 28.4096 18.4611 0
1 32.6443 18.4451 0
1 36.8993 18.4885 0
1 41.1613 18.4458 0
1 2.82454 18.4553 0
1 7.11201 20.888 0
1 11.365 20.9159 0
1 15.6387 20.8943 0
1 19.8893 20.8785 0
1 24.1521 20.9042 0
1 28.404 20.9288 0
1 32.634 20.9264 0
1 36.9281 20.9185 0
1 41.1845 20.8831 0
1 2.8279 20.8868 0
1 7.11905 23.3436 0
1 11.3454 23.3818 0
1 15.6221 23.3761 0
1 19.887 23.3378 0
1 24.1193 23.3519 0
1 28.404 23.4022 0
1 32.6755 23.3804 0
1 36.8988 23.3656 0
1 41.1999 23.361 0
1 2.82935 23.3683 0
1 7.10022 1.22009 0
1 11.3669 1.2391 0
1 15.6291 1.21471 0
1 19.8864 1.20269 0
1 24.1193 1.22091 0
1 28.3823 1.24213 0
1 32.6583 1.23637 0
1 36.8983 1.22936 0
1 41.1979 1.23385 0
1 2.83958 1.2185 0
1 6.4134 2.44713 0
1 10.6531 2.46493 0
1 14.8919 2.45099 0
1 19.1845 2.42614 0
1 23.4197 2.43056 0
1 27.6884 2.4796 0
1 31.9525 2.46803 0
1 36.19 2.4626 0
1 40.4911 2.44482 0
1 2.1094 2.4442 0
1 6.40294 4.92711 0
1 10.6662 4.94355 0
1 14.9368 4.90086 0
1 19.1729 4.91911 0
1 23.4245 4.89732 0
1 27.6916 4.91826 0
1 31.9543 4.9167 0
1 36.2044 4.91474 0
1 40.4671 4.92108 0
1 2.13025 4.8993 0
1 6.38931 7.39909 0
1 10.648 7.42913 0
1 14.9269 7.383 0
1 19.1789 7.38017 0
1 23.4341 7.38905 0
1 27.6967 7.36526 0
1 31.9648 7.39454 0
1 36.2108 7.37629 0
1 40.4602 7.39092 0
1 2.12205 7.35678 0
1 6.40768 9.82824 0
1 10.6519 9.86498 0
1 14.9205 9.83201 0
1 19.1771 9.84093 0
1 23.4397 9.82648 0
1 27.7106 9.82707 0
1 31.9552 9.83465 0
1 36.2046 9.83599 0
1 40.4763 9.85754 0
1 2.11016 9.84368 0
1 6.38671 12.3163 0
1 10.6529 12.303 0
1 14.9346 12.2866 0
1 19.1931 12.289 0
1 23.4376 12.2829 0
1 27.7049 12.2919 0