LAMMPS (7 Jun 2013)
units			metal
atom_style		atomic
#timestep 		0.001
dimension 	        2
boundary		p p p
read_data       SiC.lammpstrj
  orthogonal box = (0 0 -0.5) to (213.6 123.322 0.5)
  9 by 4 by 1 MPI processor grid
  6400 atoms
mass			1 28.0855
mass			2 12.0107

velocity	all create 50.0 12345

pair_style tersoff
pair_coeff * * SiC.tersoff Si C

thermo_style custom step temp etotal  xlo xhi ylo yhi zlo zhi vol
#========================================RELAX================================================
fix			1 all npt temp 50.0 50.0 0.1 x 0.0 0.0 1000.0 y 0.0 0.0 1000.0 couple xy
dump				1 all xyz 100000 relax50.xyz
thermo				100000
run				100000
Memory usage per processor = 1.59541 Mbytes
Step Temp TotEng Xlo Xhi Ylo Yhi Zlo Zhi Volume 
       0           50   -36332.309            0        213.6            0      123.322         -0.5          0.5    26341.579 
  100000    50.370035   -36356.555   -1.3190207    214.91902  -0.76153682    124.08354         -0.5          0.5    26996.254 
Loop time of 226.962 on 36 procs for 100000 steps with 6400 atoms

Pair  time (%) = 120.162 (52.9435)
Neigh time (%) = 0.000797954 (0.00035158)
Comm  time (%) = 24.6437 (10.8581)
Outpt time (%) = 0.543233 (0.23935)
Other time (%) = 81.6127 (35.9587)

Nlocal:    177.778 ave 187 max 168 min
Histogram: 1 3 3 4 6 5 9 1 0 4
Nghost:    161.333 ave 177 max 143 min
Histogram: 4 0 2 1 7 7 6 5 1 3
Neighs:    0 ave 0 max 0 min
Histogram: 36 0 0 0 0 0 0 0 0 0
FullNghs:  3200 ave 3366 max 3024 min
Histogram: 1 3 3 4 6 5 9 1 0 4

Total # of neighbors = 115200
Ave neighs/atom = 18
Neighbor list builds = 5
Dangerous builds = 0
undump				1
unfix				1
#=============================================================================================

#==================================HEATING at 2x10^11 K/s=====================================
#*********************************************************************************************
# DELTA_T  = 6500K-50K = 6450K
# DURATION = 6450K : 2x10^11 K/s = 3225x10^-11 s
# STEPS    = 3225x10^-11 s : 0,001 ps = 3225x10^-11 : 10^-15 = 3225x10^4 MDs
# thermo output : each 5K
# DELTA_T = 5K
# DURATION = 5K : 2x10^11 K/s = 25x10^-12 s
# STEPS    = 25x10^-12 s : 0,001 ps = 25x10^-12 : 10^-15 = 25000 MDs
# dump output : each 50K
# DELTA_T = 50K
# DURATION = 50K : 2x10^11 K/s = 25x10^-11 s
# STEPS    = 25x10^-11 s : 0,001 ps = 25x10^-11 : 10^-15 = 250000 MDs
#*********************************************************************************************
fix			1 all npt temp 50.0 6500.0 0.1 x 0.0 0.0 1000.0 y 0.0 0.0 1000.0 couple xy
dump				1 all xyz 250000 liquid.xyz
thermo				25000
run				32250000
Memory usage per processor = 1.57903 Mbytes
Step Temp TotEng Xlo Xhi Ylo Yhi Zlo Zhi Volume 
  100000    50.370035   -36356.555   -1.3190207    214.91902  -0.76153682    124.08354         -0.5          0.5    26996.254 
  125000    55.902579    -36349.94   -1.3294159    214.92942  -0.76753849    124.08954         -0.5          0.5    27001.446 
  150000    60.420382   -36344.683   -1.3266551    214.92666  -0.76594455    124.08794         -0.5          0.5    27000.067 
  175000    64.711193   -36339.045   -1.3332426    214.93324  -0.76974786    124.09175         -0.5          0.5    27003.357 
  200000    69.909871    -36334.18    -1.335012    214.93501  -0.77076944    124.09277         -0.5          0.5    27004.241 
  225000    74.210698   -36328.311   -1.3365145    214.93651  -0.77163689    124.09364         -0.5          0.5    27004.991 
  250000     78.52724    -36323.53   -1.3435505    214.94355  -0.77569915     124.0977         -0.5          0.5    27008.505 
  275000    85.593686   -36316.616   -1.3402792    214.94028  -0.77381046    124.09581         -0.5          0.5    27006.871 
  300000     90.52155   -36311.171   -1.3509305    214.95093  -0.77995997    124.10196         -0.5          0.5    27012.192 
  325000    93.684519   -36307.232   -1.3458795    214.94588  -0.77704377    124.09904         -0.5          0.5    27009.669 
  350000    100.38105   -36301.488   -1.3561938    214.95619  -0.78299873      124.105         -0.5          0.5    27014.821 
  375000    104.00578    -36295.99   -1.3535418    214.95354  -0.78146759    124.10347         -0.5          0.5    27013.496 
  400000     112.0838   -36287.706   -1.3596725    214.95967  -0.78500714    124.10701         -0.5          0.5    27016.559 
  425000    112.16692   -36282.967   -1.3625403    214.96254  -0.78666289    124.10866         -0.5          0.5    27017.991 
  450000    116.11047   -36280.843   -1.3630351    214.96304  -0.78694856    124.10895         -0.5          0.5    27018.239 
  475000    124.65762   -36272.535   -1.3708753    214.97088  -0.79147512    124.11348         -0.5          0.5    27022.156 
  500000    128.84591   -36266.874   -1.3668834    214.96688   -0.7891704    124.11117         -0.5          0.5    27020.161 
  525000    136.88568   -36259.592   -1.3783977     214.9784  -0.79581817    124.11782         -0.5          0.5    27025.914 
  550000    140.07976   -36254.407   -1.3722382    214.97224  -0.79226197    124.11426         -0.5          0.5    27022.837 
  575000     143.7287   -36251.746    -1.384134    214.98413  -0.79913003    124.12113         -0.5          0.5     27028.78 
  600000    152.57853   -36244.209   -1.3797151    214.97972  -0.79657878    124.11858         -0.5          0.5    27026.572 
  625000    155.93873   -36238.966   -1.3873522    214.98735  -0.80098803    124.12299         -0.5          0.5    27030.388 
  650000    163.96174   -36230.467   -1.3895843    214.98958  -0.80227677    124.12428         -0.5          0.5    27031.504 
  675000      160.103   -36232.303   -1.3891636    214.98916  -0.80203386    124.12403         -0.5          0.5    27031.294 
  700000    171.09999   -36222.278      -1.3992     214.9992  -0.80782837    124.12983         -0.5          0.5    27036.309 
  725000    182.23186    -36214.62   -1.3923772    214.99238  -0.80388922    124.12589         -0.5          0.5    27032.899 
  750000    179.76221   -36210.785   -1.4071472    215.00715  -0.81241669    124.13442         -0.5          0.5    27040.281 
  775000    184.75028   -36203.523   -1.3975898    214.99759  -0.80689874     124.1289         -0.5          0.5    27035.504 
  800000    193.78119   -36198.297   -1.4119319    215.01193  -0.81517914    124.13718         -0.5          0.5    27042.672 
  825000    191.12647   -36196.163   -1.4067388    215.00674  -0.81218089    124.13418         -0.5          0.5    27040.077 
  850000    201.78948   -36186.889   -1.4141093    215.01411  -0.81643629    124.13844         -0.5          0.5     27043.76 
  875000     201.9077   -36184.483   -1.4168795    215.01688  -0.81803562    124.14004         -0.5          0.5    27045.145 
  900000    214.18122   -36174.184   -1.4153048     215.0153  -0.81712651    124.13913         -0.5          0.5    27044.358 
  925000    213.66346   -36173.438    -1.428413    215.02841  -0.82469449    124.14669         -0.5          0.5     27050.91 
  950000    217.57785   -36167.473   -1.4166628    215.01666  -0.81791051    124.13991         -0.5          0.5    27045.037 
  975000    223.65685   -36160.961   -1.4373265    215.03733  -0.82984074    124.15184         -0.5          0.5    27055.366 
 1000000     234.4631   -36154.253   -1.4223325    215.02233  -0.82118395    124.14318         -0.5          0.5    27047.871 
 1025000    234.20995   -36150.652   -1.4426922    215.04269   -0.8329386    124.15494         -0.5          0.5    27058.049 
 1050000    240.29034   -36144.499   -1.4307902    215.03079  -0.82606699    124.14807         -0.5          0.5    27052.099 
 1075000    249.35919   -36137.017   -1.4444444    215.04444  -0.83395023    124.15595         -0.5          0.5    27058.925 
 1100000    248.36222   -36138.705   -1.4436173    215.04362  -0.83347272    124.15547         -0.5          0.5    27058.511 
 1125000     256.7611   -36125.521   -1.4421222    215.04212  -0.83260954    124.15461         -0.5          0.5    27057.764 
 1150000    259.25364   -36121.259   -1.4583515    215.05835   -0.8419795    124.16398         -0.5          0.5    27065.878 
 1175000    265.02362    -36116.22   -1.4407657    215.04077  -0.83182637    124.15383         -0.5          0.5    27057.086 
 1200000    275.22068   -36108.025   -1.4702142    215.07021  -0.84882845    124.17083         -0.5          0.5     27071.81 
 1225000    276.91807   -36104.544   -1.4445401    215.04454  -0.83400552    124.15601         -0.5          0.5    27058.973 
 1250000     280.4599   -36099.013   -1.4758532    215.07585  -0.85208413    124.17408         -0.5          0.5     27074.63 
 1275000    284.31525   -36097.117   -1.4557641    215.05576  -0.84048569    124.16249         -0.5          0.5    27064.584 
 1300000    292.24203   -36084.987   -1.4738338    215.07383  -0.85091821    124.17292         -0.5          0.5     27073.62 
 1325000    297.31606    -36083.83   -1.4726142    215.07261  -0.85021411    124.17221         -0.5          0.5     27073.01 
 1350000    297.24665    -36076.73    -1.468732    215.06873  -0.84797272    124.16997         -0.5          0.5    27071.069 
 1375000    307.83972   -36070.341    -1.490358    215.09036  -0.86045847    124.18246         -0.5          0.5    27081.884 
 1400000    308.10371   -36067.778   -1.4658957     215.0659  -0.84633516    124.16834         -0.5          0.5    27069.651 
 1425000    312.13979   -36065.632     -1.50306    215.10306    -0.867792    124.18979         -0.5          0.5    27088.238 
 1450000    320.73756   -36056.837   -1.4690936    215.06909  -0.84818147    124.17018         -0.5          0.5     27071.25 
 1475000    330.41258   -36044.599   -1.5078404    215.10784  -0.87055194    124.19255         -0.5          0.5    27090.629 
 1500000    326.31512   -36046.449   -1.4833552    215.08336  -0.85641539    124.17842         -0.5          0.5    27078.382 
 1525000    336.74424   -36040.282   -1.5027208    215.10272  -0.86759611     124.1896         -0.5          0.5    27088.068 
 1550000    341.07678   -36033.609   -1.5040047      215.104   -0.8683374    124.19034         -0.5          0.5    27088.711 
 1575000    341.68299   -36034.279   -1.4949399    215.09494  -0.86310381     124.1851         -0.5          0.5    27084.176 
 1600000    350.62644   -36021.327   -1.5238334    215.12383   -0.8797855    124.20179         -0.5          0.5    27098.631 
 1625000    347.62376   -36023.771   -1.4901648    215.09016  -0.86034691    124.18235         -0.5          0.5    27081.788 
 1650000    360.80834   -36010.199   -1.5380046      215.138  -0.88796723    124.20997         -0.5          0.5    27105.721 
 1675000    363.01879   -36009.023   -1.4947739    215.09477  -0.86300799    124.18501         -0.5          0.5    27084.093 
 1700000    369.60952   -35999.016   -1.5412381    215.14124  -0.88983411    124.21183         -0.5          0.5    27107.339 
 1725000    374.79596   -35994.955   -1.5109227    215.11092  -0.87233152    124.19433         -0.5          0.5    27092.171 
 1750000    373.62035   -35991.316   -1.5356744    215.13567  -0.88662191    124.20862         -0.5          0.5    27104.555 
 1775000    390.99328   -35977.142   -1.5332295    215.13323  -0.88521032    124.20721         -0.5          0.5    27103.332 
 1800000    388.85268   -35977.158   -1.5252558    215.12526  -0.88060674    124.20261         -0.5          0.5    27099.342 
 1825000    400.25604   -35972.523   -1.5585186    215.15852  -0.89981098    124.22181         -0.5          0.5    27115.987 
 1850000    404.56386   -35963.999   -1.5168228    215.11682  -0.87573792    124.19774         -0.5          0.5    27095.123 
 1875000    401.88173    -35960.24   -1.5761469    215.17615  -0.90998873    124.23199         -0.5          0.5    27124.811 
 1900000    410.22411   -35953.594   -1.5195417    215.11954  -0.87730768    124.19931         -0.5          0.5    27096.483 
 1925000    413.93829   -35943.343   -1.5813017     215.1813  -0.91296486    124.23496         -0.5          0.5    27127.391 
 1950000    414.19523    -35943.51   -1.5342248    215.13422  -0.88578496    124.20778         -0.5          0.5     27103.83 
 1975000    420.88948   -35940.096   -1.5744507    215.17445  -0.90900939    124.23101         -0.5          0.5    27123.962 
 2000000    431.09036   -35932.236   -1.5606176    215.16062  -0.90102285    124.22302         -0.5          0.5    27117.038 
 2025000    441.43694   -35925.831   -1.5600767    215.16008  -0.90071056    124.22271         -0.5          0.5    27116.767 
 2050000    438.39334   -35919.056   -1.5911203    215.19112  -0.91863363    124.24063         -0.5          0.5    27132.306 
 2075000    443.47302   -35918.883   -1.5463293    215.14633  -0.89277351    124.21477         -0.5          0.5    27109.887 
 2100000    453.48931   -35906.658   -1.6143822    215.21438  -0.93206389    124.25406         -0.5          0.5    27143.953 
 2125000    460.94401   -35902.784   -1.5450955     215.1451   -0.8920612    124.21406         -0.5          0.5     27109.27 
 2150000     457.4555   -35898.861   -1.6216299    215.22163  -0.93624835    124.25825         -0.5          0.5    27147.583 
 2175000    463.25968   -35893.582   -1.5611825    215.16118  -0.90134903    124.22335         -0.5          0.5     27117.32 
 2200000    472.49949   -35887.213   -1.6132513    215.21325  -0.93141091    124.25341         -0.5          0.5    27143.387 
 2225000    471.12923   -35880.617   -1.5894316    215.18943  -0.91765866    124.23966         -0.5          0.5    27131.461 
 2250000    473.65037   -35872.899   -1.5954218    215.19542  -0.92111708    124.24312         -0.5          0.5     27134.46 
 2275000    477.00384   -35875.253   -1.6259862    215.22599  -0.93876346    124.26076         -0.5          0.5    27149.764 
 2300000    475.04692   -35879.741    -1.578037    215.17804  -0.91107994    124.23308         -0.5          0.5    27125.757 
 2325000    490.10235   -35864.454   -1.6544331    215.25443  -0.95518727    124.27719         -0.5          0.5    27164.012 
 2350000    500.57286   -35854.938   -1.5707582    215.17076  -0.90687756    124.22888         -0.5          0.5    27122.113 
 2375000    504.71513   -35845.186   -1.6659293    215.26593  -0.96182459    124.28382         -0.5          0.5    27169.771 
 2400000     503.2706   -35847.947   -1.5858648    215.18586  -0.91559933     124.2376         -0.5          0.5    27129.675 
 2425000    514.07814   -35844.355   -1.6581075    215.25811  -0.95730866    124.27931         -0.5          0.5    27165.853 
 2450000    519.84954   -35837.989   -1.6168741    215.21687  -0.93350254     124.2555         -0.5          0.5    27145.201 
 2475000    537.56561   -35820.874   -1.6365135    215.23651  -0.94484137    124.26684         -0.5          0.5    27155.037 
 2500000    530.60679   -35823.492    -1.654472    215.25447  -0.95520971    124.27721         -0.5          0.5    27164.032 
 2525000     534.5707    -35819.17   -1.6165221    215.21652  -0.93329933     124.2553         -0.5          0.5    27145.025 
 2550000    537.96579   -35810.999   -1.6889242    215.28892  -0.97510071     124.2971         -0.5          0.5    27181.293 
 2575000    541.92151   -35809.913   -1.6044924    215.20449  -0.92635397    124.24835         -0.5          0.5    27139.001 
 2600000    543.33134   -35800.994    -1.708525    215.30852  -0.98641721    124.30842         -0.5          0.5    27191.115 
 2625000    559.75653   -35795.021   -1.6099891    215.20999   -0.9295275    124.25153         -0.5          0.5    27141.754 
 2650000    564.40283   -35790.993   -1.7093609    215.30936  -0.98689983     124.3089         -0.5          0.5    27191.534 
 2675000    566.17571   -35782.248   -1.6361836    215.23618  -0.94465089    124.26665         -0.5          0.5    27154.871 
 2700000    566.92911   -35783.366    -1.690778    215.29078  -0.97617097    124.29817         -0.5          0.5    27182.222 
 2725000    573.26433   -35778.331   -1.6771084    215.27711  -0.96827885    124.29028         -0.5          0.5    27175.372 
 2750000    572.04106   -35772.389   -1.6630789    215.26308   -0.9601789    124.28218         -0.5          0.5    27168.343 
 2775000    598.54026   -35751.146   -1.7219779    215.32198  -0.99418425    124.31618         -0.5          0.5    27197.858 
 2800000    597.04746   -35746.215   -1.6415661    215.24157  -0.94775851    124.26976         -0.5          0.5    27157.567 
 2825000    605.30109   -35741.285    -1.750488    215.35049   -1.0106446    124.33264         -0.5          0.5     27212.15 
 2850000    591.35663   -35749.329   -1.6371575    215.23716   -0.9452132    124.26721         -0.5          0.5    27155.359 
 2875000    595.01425   -35738.227   -1.7609745    215.36097    -1.016699     124.3387         -0.5          0.5    27217.408 
 2900000    616.12588   -35729.888   -1.6558024     215.2558  -0.95597783    124.27798         -0.5          0.5    27164.698 
 2925000    615.60013   -35726.408   -1.7509629    215.35096   -1.0109188    124.33292         -0.5          0.5    27212.389 
 2950000     612.0574   -35725.772   -1.6908782    215.29088  -0.97622887    124.29823         -0.5          0.5    27182.272 
 2975000    615.55476   -35721.347   -1.7268659    215.32687  -0.99700632    124.31901         -0.5          0.5    27200.308 
 3000000    630.49122   -35713.904   -1.7334884    215.33349   -1.0008299    124.32283         -0.5          0.5    27203.628 
 3025000    635.27298   -35711.624    -1.703974    215.30397  -0.98378969    124.30579         -0.5          0.5    27188.835 
 3050000    629.50982   -35701.844   -1.7652534    215.36525   -1.0191694    124.34117         -0.5          0.5    27219.554 
 3075000    649.09024   -35690.696   -1.6937233    215.29372  -0.97787145    124.29987         -0.5          0.5    27183.698 
 3100000    645.94946   -35690.642    -1.786918    215.38692   -1.0316774    124.35368         -0.5          0.5    27230.418 
 3125000    665.24123   -35674.536   -1.6994978     215.2995  -0.98120537    124.30321         -0.5          0.5    27186.591 
 3150000    660.19417   -35672.945   -1.7907192    215.39072   -1.0338721    124.35587         -0.5          0.5    27232.325 
 3175000    682.36935   -35661.782   -1.7168586    215.31686  -0.99122861    124.31323         -0.5          0.5    27195.292 
 3200000    663.86967   -35668.059   -1.7846886    215.38469   -1.0303903    124.35239         -0.5          0.5      27229.3 
 3225000    676.94192   -35666.583   -1.7479568    215.34796   -1.0091832    124.33118         -0.5          0.5    27210.881 
 3250000    667.14332    -35661.26   -1.7720798    215.37208   -1.0231106    124.34511         -0.5          0.5    27222.977 
 3275000    692.07799   -35650.017   -1.7744861    215.37449   -1.0244999     124.3465         -0.5          0.5    27224.184 
 3300000    700.02088    -35647.49   -1.7642722    215.36427   -1.0186029     124.3406         -0.5          0.5    27219.062 
 3325000    702.23208   -35629.869   -1.7995812    215.39958   -1.0389886    124.36099         -0.5          0.5     27236.77 
 3350000    705.32996   -35628.866   -1.7583159    215.35832    -1.015164    124.33716         -0.5          0.5    27216.075 
 3375000    717.52844   -35622.144     -1.81507    215.41507    -1.047931    124.36993         -0.5          0.5     27244.54 
 3400000    699.41386   -35626.524   -1.7637524    215.36375   -1.0183028     124.3403         -0.5          0.5    27218.801 
 3425000    711.37347   -35618.026    -1.824393    215.42439   -1.0533137    124.37531         -0.5          0.5    27249.217 
 3450000      725.146   -35610.808   -1.7793074    215.37931   -1.0272835    124.34928         -0.5          0.5    27226.602 
 3475000      736.448   -35601.885   -1.8240025      215.424   -1.0530882    124.37509         -0.5          0.5    27249.021 
 3500000    722.13798   -35597.907   -1.8013275    215.40133   -1.0399968      124.362         -0.5          0.5    27237.646 
 3525000    737.31868   -35585.523   -1.8173381    215.41734   -1.0492405    124.37124         -0.5          0.5    27245.678 
 3550000    747.13675   -35583.278   -1.8227718    215.42277   -1.0523776    124.37438         -0.5          0.5    27248.404 
 3575000    758.63653   -35574.092   -1.8166243    215.41662   -1.0488284    124.37083         -0.5          0.5    27245.319 
 3600000    770.99749   -35565.824   -1.8375295    215.43753    -1.060898     124.3829         -0.5          0.5    27255.808 
 3625000    765.47095   -35555.859   -1.8240493    215.42405   -1.0531152    124.37512         -0.5          0.5    27249.045 
 3650000    769.26392   -35568.987   -1.8518994     215.4519   -1.0691945    124.39119         -0.5          0.5    27263.019 
 3675000    766.65904     -35564.1   -1.8260857    215.42609   -1.0542909    124.37629         -0.5          0.5    27250.066 
 3700000    796.27929   -35538.139    -1.865497     215.4655   -1.0770451    124.39905         -0.5          0.5    27269.843 
 3725000     794.1405   -35546.235   -1.8351726    215.43517   -1.0595373    124.38154         -0.5          0.5    27254.626 
 3750000    778.42981   -35547.779   -1.8716801    215.47168   -1.0806148    124.40261         -0.5          0.5    27272.947 
 3775000     773.1022     -35554.4   -1.8497654    215.44977   -1.0679624    124.38996         -0.5          0.5    27261.948 
 3800000    806.15442   -35522.703   -1.8724463    215.47245   -1.0810572    124.40306         -0.5          0.5    27273.331 
 3825000    806.43229    -35513.98   -1.8696988     215.4697    -1.079471    124.40147         -0.5          0.5    27271.952 
 3850000    808.43914   -35523.517   -1.8706655    215.47067   -1.0800291    124.40203         -0.5          0.5    27272.438 
 3875000    806.83366    -35509.94   -1.8885618    215.48856   -1.0903615    124.41236         -0.5          0.5    27281.421 
 3900000    816.08829   -35514.971   -1.8669922    215.46699   -1.0779083    124.39991         -0.5          0.5    27270.594 
 3925000    825.10581   -35494.493   -1.9081444    215.50814   -1.1016675    124.42367         -0.5          0.5    27291.252 
 3950000    818.70366   -35498.876   -1.8701127    215.47011   -1.0797099    124.40171         -0.5          0.5     27272.16 
 3975000    830.02731     -35483.9   -1.9243653    215.52437   -1.1110327    124.43303         -0.5          0.5    27299.398 
 4000000    830.17418   -35493.105   -1.8710234    215.47102   -1.0802357    124.40224         -0.5          0.5    27272.617 
 4025000    824.13425   -35487.323    -1.937561    215.53756   -1.1186512    124.44065         -0.5          0.5    27306.025 
 4050000    864.15108   -35466.879   -1.8842501    215.48425   -1.0878721    124.40987         -0.5          0.5    27279.256 
 4075000    830.95755   -35489.864   -1.9377236    215.53772   -1.1187451    124.44075         -0.5          0.5    27306.106 
 4100000      843.542   -35473.668    -1.904999      215.505   -1.0998515    124.42185         -0.5          0.5    27289.673 
 4125000    859.54978   -35456.963   -1.9299245    215.52992   -1.1142423    124.43624         -0.5          0.5    27302.189 
 4150000    862.00213   -35448.086   -1.9367661    215.53677   -1.1181923    124.44019         -0.5          0.5    27305.625 
 4175000    877.31908   -35443.883   -1.9198689    215.51987   -1.1084367    124.43044         -0.5          0.5     27297.14 
 4200000    874.74646   -35441.951   -1.9706777    215.57068   -1.1377711    124.45977         -0.5          0.5     27322.66 
 4225000     866.7816   -35450.932   -1.9009525    215.50095   -1.0975153    124.41952         -0.5          0.5    27287.642 
 4250000    876.08136   -35438.561   -2.0069899    215.60699    -1.158736    124.48074         -0.5          0.5    27340.906 
 4275000    902.95379   -35413.124   -1.8884547    215.48845   -1.0902997     124.4123         -0.5          0.5    27281.367 
 4300000    901.33042   -35407.875   -2.0307399    215.63074    -1.172448    124.49445         -0.5          0.5    27352.843 
 4325000    879.24445   -35431.032   -1.8932738    215.49327    -1.093082    124.41508         -0.5          0.5    27283.786 
 4350000    898.24565   -35408.918   -2.0351998     215.6352    -1.175023    124.49702         -0.5          0.5    27355.084 
 4375000    917.08475   -35397.614   -1.9136132    215.51361   -1.1048249    124.42682         -0.5          0.5    27293.998 
 4400000    900.31095   -35395.254   -2.0207621    215.62076   -1.1666874    124.48869         -0.5          0.5    27347.827 
 4425000     894.8785   -35410.957   -1.9590715    215.55907   -1.1310703    124.45307         -0.5          0.5    27316.829 
 4450000    921.98337   -35384.846   -1.9912746    215.59127   -1.1496627    124.47166         -0.5          0.5    27333.008 
 4475000    926.97028   -35386.109   -2.0022499    215.60225   -1.1559994      124.478         -0.5          0.5    27338.523 
 4500000    925.21355   -35388.658   -1.9707676    215.57077    -1.137823    124.45982         -0.5          0.5    27322.705 
 4525000    908.35795   -35377.143   -2.0440663    215.64407   -1.1801421    124.50214         -0.5          0.5    27359.542 
 4550000    933.72509    -35369.23   -1.9523031     215.5523   -1.1271625    124.44916         -0.5          0.5    27313.429 
 4575000    944.98107   -35347.798   -2.0700587    215.67006   -1.1951488    124.51715         -0.5          0.5     27372.61 
 4600000    936.64493   -35359.792   -1.9537526    215.55375   -1.1279994       124.45         -0.5          0.5    27314.157 
 4625000    953.55536   -35344.857   -2.0820169    215.68202   -1.2020528    124.52405         -0.5          0.5    27378.624 
 4650000    975.87773   -35334.329   -1.9669603    215.56696   -1.1356249    124.45762         -0.5          0.5    27320.792 
 4675000     974.3292   -35330.211   -2.0801632    215.68016   -1.2009826    124.52298         -0.5          0.5    27377.692 
 4700000    956.33983   -35332.966   -1.9940748    215.59407   -1.1512795    124.47328         -0.5          0.5    27334.415 
 4725000    982.24431   -35328.507   -2.0681361    215.66814   -1.1940388    124.51604         -0.5          0.5    27371.644 
 4750000    992.16349   -35314.993   -2.0244484    215.62445   -1.1688157    124.49082         -0.5          0.5     27349.68 
 4775000    987.39995   -35317.119   -2.0583652    215.65837   -1.1883976     124.5104         -0.5          0.5    27366.731 
 4800000    972.39637   -35318.964   -2.0514129    215.65141   -1.1843836    124.50638         -0.5          0.5    27363.235 
 4825000    1005.0605   -35292.259    -2.055293    215.65529   -1.1866238    124.50862         -0.5          0.5    27365.186 
 4850000    1015.0686   -35285.916   -2.0699807    215.66998   -1.1951037     124.5171         -0.5          0.5    27372.571 
 4875000    1015.7964   -35284.728   -2.0595321    215.65953   -1.1890713    124.51107         -0.5          0.5    27367.317 
 4900000    983.70383   -35290.476   -2.0874891    215.68749   -1.2052122    124.52721         -0.5          0.5    27381.376 
 4925000    1023.2463   -35290.468   -2.0594339    215.65943   -1.1890145    124.51101         -0.5          0.5    27367.268 
 4950000    1004.7338   -35300.066   -2.0998125    215.69981   -1.2123271    124.53433         -0.5          0.5    27387.574 
 4975000    1005.3656   -35283.068   -2.0682041     215.6682    -1.194078    124.51608         -0.5          0.5    27371.678 
 5000000    1017.7104   -35279.509   -2.1133053    215.71331   -1.2201172    124.54212         -0.5          0.5    27394.361 
 5025000    1019.4501   -35279.763   -2.0773099    215.67731   -1.1993353    124.52134         -0.5          0.5    27376.257 
 5050000    1041.0243    -35234.14   -2.1208333    215.72083   -1.2244635    124.54646         -0.5          0.5    27398.148 
 5075000     1013.991   -35272.758   -2.0899502    215.68995   -1.2066332    124.52863         -0.5          0.5    27382.614 
 5100000    1066.9162   -35241.178    -2.126304     215.7263    -1.227622    124.54962         -0.5          0.5    27400.901 
 5125000    1053.3802   -35232.803   -2.1039201    215.70392   -1.2146987     124.5367         -0.5          0.5     27389.64 
 5150000    1059.6619   -35241.099   -2.1248438    215.72484    -1.226779    124.54878         -0.5          0.5    27400.166 
 5175000    1062.1291   -35222.383   -2.1323381    215.73234   -1.2311058    124.55311         -0.5          0.5    27403.937 
 5200000    1072.5915   -35220.826   -2.1222526    215.72225    -1.225283    124.54728         -0.5          0.5    27398.862 
 5225000    1076.6739   -35216.072   -2.1468396    215.74684   -1.2394783    124.56148         -0.5          0.5    27411.233 
 5250000    1068.3216   -35208.249   -2.1275253    215.72753   -1.2283271    124.55033         -0.5          0.5    27401.515 
 5275000    1101.4247   -35185.438   -2.1585388    215.75854   -1.2462328    124.56823         -0.5          0.5    27417.121 
 5300000    1059.5584   -35220.221   -2.1393329    215.73933   -1.2351443    124.55714         -0.5          0.5    27407.456 
 5325000    1096.2103   -35196.197   -2.1636774    215.76368   -1.2491996     124.5712         -0.5          0.5    27419.707 
 5350000    1099.8277   -35182.247   -2.1512674    215.75127   -1.2420346    124.56403         -0.5          0.5    27413.461 
 5375000    1098.4904    -35195.01   -2.1737225    215.77372   -1.2549991      124.577         -0.5          0.5    27424.763 
 5400000    1120.8521   -35164.268   -2.1607458    215.76075    -1.247507    124.56951         -0.5          0.5    27418.231 
 5425000    1113.6494   -35171.811   -2.1800867    215.78009   -1.2586735    124.58067         -0.5          0.5    27427.966 
 5450000    1110.6271   -35189.689   -2.1758009     215.7758   -1.2561991     124.5782         -0.5          0.5    27425.809 
 5475000    1126.8883   -35165.402   -2.1858435    215.78584   -1.2619972      124.584         -0.5          0.5    27430.864 
 5500000    1141.8945   -35163.404   -2.1896505    215.78965   -1.2641951     124.5862         -0.5          0.5     27432.78 
 5525000    1125.3271    -35155.17   -2.1929492    215.79295   -1.2660997     124.5881         -0.5          0.5    27434.441 
 5550000     1144.385   -35131.935   -2.1988118    215.79881   -1.2694844    124.59148         -0.5          0.5    27437.392 
 5575000    1133.2363   -35141.326     -2.20818    215.80818   -1.2748931    124.59689         -0.5          0.5    27442.109 
 5600000    1150.8875    -35124.99   -2.2061872    215.80619   -1.2737426    124.59574         -0.5          0.5    27441.105 
 5625000    1154.7761    -35116.78   -2.2151849    215.81518   -1.2789374    124.60094         -0.5          0.5    27445.636 
 5650000    1165.9518   -35117.354   -2.2184858    215.81849   -1.2808432    124.60284         -0.5          0.5    27447.298 
 5675000    1163.9889   -35119.297   -2.2187694    215.81877   -1.2810069    124.60301         -0.5          0.5    27447.441 
 5700000    1194.6979   -35109.958   -2.2326547    215.83265   -1.2890236    124.61102         -0.5          0.5    27454.433 
 5725000    1180.1486   -35090.157   -2.2281603    215.82816   -1.2864287    124.60843         -0.5          0.5    27452.169 
 5750000    1159.9624    -35096.65   -2.2407818    215.84078   -1.2937158    124.61572         -0.5          0.5    27458.526 
 5775000     1182.754   -35084.271   -2.2401955     215.8402   -1.2933773    124.61538         -0.5          0.5     27458.23 
 5800000    1190.5547    -35099.83   -2.2582397    215.85824   -1.3037951     124.6258         -0.5          0.5    27467.319 
 5825000    1198.2119    -35087.33   -2.2406501    215.84065   -1.2936397    124.61564         -0.5          0.5    27458.459 
 5850000    1214.1193   -35067.609   -2.2747686    215.87477   -1.3133381    124.63534         -0.5          0.5    27475.645 
 5875000    1193.2321   -35063.344   -2.2496805    215.84968   -1.2988535    124.62085         -0.5          0.5    27463.008 
 5900000    1197.5604   -35073.092   -2.2810744    215.88107   -1.3169787    124.63898         -0.5          0.5    27478.822 
 5925000    1233.6025   -35051.681   -2.2611551    215.86116   -1.3054783    124.62748         -0.5          0.5    27468.787 
 5950000    1233.3312   -35053.148   -2.2896312    215.88963    -1.321919    124.64392         -0.5          0.5    27483.134 
 5975000    1213.9436   -35070.158   -2.2729325    215.87293    -1.312278    124.63428         -0.5          0.5     27474.72 
 6000000    1235.9624   -35032.177   -2.3008443    215.90084   -1.3283929    124.65039         -0.5          0.5    27488.784 
 6025000    1254.4496   -35031.508   -2.2820629    215.88206   -1.3175495    124.63955         -0.5          0.5     27479.32 
 6050000    1237.2845    -35044.72   -2.3090804    215.90908    -1.333148    124.65515         -0.5          0.5    27492.934 
 6075000    1259.1148   -35015.665   -2.2966274    215.89663   -1.3259583    124.64796         -0.5          0.5    27486.659 
 6100000    1241.6028   -35009.033   -2.3069338    215.90693   -1.3319087    124.65391         -0.5          0.5    27491.852 
 6125000    1215.5632   -35050.944   -2.3183384    215.91834   -1.3384931    124.66049         -0.5          0.5      27497.6 
 6150000    1253.1628    -35010.91   -2.3025784    215.90258   -1.3293941    124.65139         -0.5          0.5    27489.658 
 6175000     1258.279   -35003.839   -2.3433685    215.94337   -1.3529442    124.67494         -0.5          0.5    27510.217 
 6200000    1243.1754   -35017.295   -2.2983754    215.89838   -1.3269675    124.64897         -0.5          0.5     27487.54 
 6225000    1253.2149   -35001.173   -2.3698446    215.96984   -1.3682302    124.69023         -0.5          0.5    27523.565 
 6250000    1265.4857   -34996.853   -2.2984973     215.8985   -1.3270378    124.64904         -0.5          0.5    27487.601 
 6275000    1268.1777   -34984.155   -2.3852228    215.98522   -1.3771088    124.69911         -0.5          0.5     27531.32 
 6300000    1274.3078   -34972.933   -2.3005238    215.90052   -1.3282078    124.65021         -0.5          0.5    27488.622 
 6325000    1293.4152   -34953.144   -2.4017354    216.00174   -1.3866424    124.70864         -0.5          0.5    27539.648 
 6350000    1306.2132   -34966.713   -2.3089756    215.90898   -1.3330875    124.65509         -0.5          0.5    27492.881 
 6375000    1306.2633   -34952.934   -2.4091171    216.00912   -1.3909042     124.7129         -0.5          0.5    27543.371 
 6400000    1309.3473   -34974.624   -2.3226276    215.92263   -1.3409695    124.66297         -0.5          0.5    27499.762 
 6425000    1334.9476   -34918.542   -2.4090406    216.00904     -1.39086    124.71286         -0.5          0.5    27543.333 
 6450000    1324.3654   -34929.422   -2.3478326    215.94783   -1.3555216    124.67752         -0.5          0.5    27512.467 
 6475000    1338.4513   -34939.709   -2.4004877    216.00049    -1.385922    124.70792         -0.5          0.5    27539.019 
 6500000     1308.859   -34924.694   -2.3824515    215.98245   -1.3755088    124.69751         -0.5          0.5    27529.922 
 6525000    1321.9035   -34932.659   -2.3842317    215.98423   -1.3765366    124.69854         -0.5          0.5     27530.82 
 6550000    1341.7482   -34914.684   -2.4155983     216.0156   -1.3946461    124.71665         -0.5          0.5     27546.64 
 6575000    1366.9595   -34893.025   -2.3701963     215.9702   -1.3684333    124.69043         -0.5          0.5    27523.742 
 6600000     1345.798   -34895.516   -2.4496503    216.04965    -1.414306    124.73631         -0.5          0.5    27563.821 
 6625000    1343.6072   -34914.332   -2.3592919    215.95929   -1.3621376    124.68414         -0.5          0.5    27518.244 
 6650000    1347.8365   -34884.802    -2.476939    216.07694   -1.4300612    124.75206         -0.5          0.5    27577.592 
 6675000    1357.0041    -34899.16    -2.358564    215.95856   -1.3617174    124.68372         -0.5          0.5    27517.877 
 6700000    1381.5757    -34872.92   -2.4866433    216.08664    -1.435664    124.75766         -0.5          0.5     27582.49 
 6725000    1363.4665   -34887.838   -2.3722899    215.97229    -1.369642    124.69164         -0.5          0.5    27524.798 
 6750000    1381.5598   -34878.959   -2.4983402    216.09834   -1.4424172    124.76442         -0.5          0.5    27588.395 
 6775000    1355.4759   -34884.787   -2.3852634    215.98526   -1.3771323    124.69913         -0.5          0.5     27531.34 
 6800000    1357.0885   -34880.876   -2.4976768    216.09768   -1.4420341    124.76403         -0.5          0.5     27588.06 
 6825000    1410.0682   -34865.156   -2.4094135    216.00941   -1.3910753    124.71308         -0.5          0.5    27543.521 
 6850000    1382.7995   -34851.558   -2.4935336    216.09353   -1.4396421    124.76164         -0.5          0.5    27585.969 
 6875000    1392.9629   -34853.902   -2.4371927    216.03719   -1.4071137    124.72911         -0.5          0.5    27557.535 
 6900000    1402.0487   -34852.436     -2.48327    216.08327   -1.4337164    124.75572         -0.5          0.5    27580.788 
 6925000    1384.9547   -34849.784   -2.4724562    216.07246    -1.427473    124.74947         -0.5          0.5     27575.33 
 6950000    1426.1714   -34819.201   -2.4532515    216.05325   -1.4163852    124.73839         -0.5          0.5    27565.638 
 6975000    1439.2032   -34804.228   -2.5295718    216.12957   -1.4604488    124.78245         -0.5          0.5    27604.164 
 7000000    1429.1839   -34812.737   -2.4170557    216.01706   -1.3954876    124.71749         -0.5          0.5    27547.376 
 7025000    1425.1552   -34809.213   -2.5805293    216.18053   -1.4898691    124.81187         -0.5          0.5    27629.902 
 7050000    1414.7221   -34835.698   -2.3889223    215.98892   -1.3792447    124.70124         -0.5          0.5    27533.186 
 7075000    1428.7118   -34790.637   -2.6200741    216.22007   -1.5127003     124.8347         -0.5          0.5    27649.884 
 7100000    1446.3598   -34806.071   -2.3851943    215.98519   -1.3770923    124.69909         -0.5          0.5    27531.305 
 7125000     1462.665   -34777.257   -2.6251055    216.22511   -1.5156051    124.83761         -0.5          0.5    27652.427 
 7150000    1456.4748   -34791.636   -2.4214107    216.02141   -1.3980019       124.72         -0.5          0.5    27549.573 
 7175000    1463.1787   -34762.905   -2.5990155    216.19902   -1.5005421    124.82254         -0.5          0.5    27639.242 
 7200000    1496.8187   -34779.888   -2.4649444    216.06494   -1.4231361    124.74514         -0.5          0.5    27571.539 
 7225000    1468.9753   -34766.434   -2.5768808    216.17688   -1.4877626    124.80976         -0.5          0.5    27628.059 
 7250000    1476.6435   -34778.334    -2.502104     216.1021   -1.4445902    124.76659         -0.5          0.5    27590.295 
 7275000     1494.437   -34758.947   -2.5648363    216.16484   -1.4808087    124.80281         -0.5          0.5    27621.974 
 7300000     1502.485   -34744.714   -2.5357076    216.13571   -1.4639913    124.78599         -0.5          0.5    27607.262 
 7325000    1474.3614   -34755.525   -2.5521478    216.15215    -1.473483    124.79548         -0.5          0.5    27615.565 
 7350000    1508.5936   -34722.063   -2.5641794    216.16418   -1.4804294    124.80243         -0.5          0.5    27621.642 
 7375000    1500.8694   -34740.168   -2.5431953     216.1432   -1.4683143    124.79031         -0.5          0.5    27611.044 
 7400000    1513.3523   -34727.996   -2.5951023     216.1951   -1.4982828    124.82028         -0.5          0.5    27637.265 
 7425000    1490.2126   -34743.435   -2.5401701    216.14017   -1.4665677    124.78857         -0.5          0.5    27609.516 
 7450000    1510.0327   -34737.019    -2.614127    216.21413   -1.5092667    124.83127         -0.5          0.5    27646.878 
 7475000    1502.0846   -34735.279   -2.5400357    216.14004   -1.4664901    124.78849         -0.5          0.5    27609.448 
 7500000     1540.553   -34692.342   -2.6286869    216.22869   -1.5176729    124.83967         -0.5          0.5    27654.237 
 7525000    1523.0091   -34695.371   -2.5479588    216.14796   -1.4710645    124.79306         -0.5          0.5     27613.45 
 7550000    1554.9277    -34669.27   -2.6463825    216.24638   -1.5278894    124.84989         -0.5          0.5    27663.181 
 7575000    1543.0217   -34697.276   -2.5506947    216.15069    -1.472644    124.79464         -0.5          0.5    27614.831 
 7600000    1550.4325   -34684.487   -2.6554582    216.25546   -1.5331293    124.85513         -0.5          0.5    27667.769 
 7625000    1559.6718    -34673.35   -2.5719142    216.17191   -1.4848952     124.8069         -0.5          0.5     27625.55 
 7650000    1529.5255   -34690.394   -2.6448649    216.24486   -1.5270133    124.84901         -0.5          0.5    27662.414 
 7675000    1574.6836   -34653.824   -2.6023263    216.20233   -1.5024536    124.82445         -0.5          0.5    27640.915 
 7700000     1559.356   -34680.008   -2.6347533    216.23475   -1.5211753    124.84318         -0.5          0.5    27657.303 
 7725000     1561.591   -34670.827   -2.6324824    216.23248   -1.5198642    124.84186         -0.5          0.5    27656.155 
 7750000    1589.3048   -34649.697   -2.6250977     216.2251   -1.5156007     124.8376         -0.5          0.5    27652.423 
 7775000    1577.7455   -34652.237   -2.6658718    216.26587   -1.5391416    124.86114         -0.5          0.5    27673.034 
 7800000    1593.9236   -34631.573   -2.6065624    216.20656   -1.5048993     124.8269         -0.5          0.5    27643.056 
 7825000    1564.1042   -34624.711   -2.7077582    216.30776   -1.5633247    124.88532         -0.5          0.5    27694.216 
 7850000    1618.3121   -34612.941   -2.5897484    216.18975   -1.4951917    124.81719         -0.5          0.5     27634.56 
 7875000    1597.7707    -34617.24   -2.7462936    216.34629   -1.5855731    124.90757         -0.5          0.5    27713.711 
 7900000    1579.4288   -34644.655   -2.5650674    216.16507   -1.4809421    124.80294         -0.5          0.5    27622.091 
 7925000    1620.7964   -34582.312    -2.792083    216.39208   -1.6120096    124.93401         -0.5          0.5    27736.884 
 7950000    1598.0579   -34624.725   -2.5449161    216.14492   -1.4693078    124.79131         -0.5          0.5    27611.913 
 7975000    1617.6854   -34593.159   -2.8269064    216.42691   -1.6321149    124.95411         -0.5          0.5    27754.514 
 8000000    1602.2491   -34618.516   -2.5448732    216.14487    -1.469283    124.79128         -0.5          0.5    27611.891 
 8025000    1628.2513   -34582.276   -2.8211181    216.42112   -1.6287731    124.95077         -0.5          0.5    27751.583 
 8050000    1648.9524   -34566.779   -2.5928638    216.19286   -1.4969904    124.81899         -0.5          0.5    27636.134 
 8075000    1640.2804   -34552.573   -2.7744944    216.37449   -1.6018549    124.92385         -0.5          0.5    27727.981 
 8100000    1612.6501   -34586.618   -2.6696895    216.26969   -1.5413457    124.86335         -0.5          0.5    27674.965 
 8125000     1668.078   -34559.286   -2.7215314    216.32153   -1.5712767    124.89328         -0.5          0.5    27701.183 
 8150000     1630.948   -34588.055   -2.7244964     216.3245   -1.5729885    124.89499         -0.5          0.5    27702.683 
 8175000    1672.6179   -34540.101   -2.7026054    216.30261   -1.5603497    124.88235         -0.5          0.5     27691.61 
 8200000    1705.8784   -34532.897   -2.7501256    216.35013   -1.5877855    124.90979         -0.5          0.5     27715.65 
 8225000    1639.7627   -34573.637   -2.7040016      216.304   -1.5611558    124.88316         -0.5          0.5    27692.316 
 8250000    1681.3335    -34549.12    -2.775415    216.37542   -1.6023864    124.92439         -0.5          0.5    27728.447 
 8275000    1703.3277   -34546.835   -2.7008128    216.30081   -1.5593148    124.88131         -0.5          0.5    27690.703 
 8300000    1694.2285   -34503.719   -2.7947743    216.39477   -1.6135635    124.93556         -0.5          0.5    27738.246 
 8325000    1707.5486   -34518.109   -2.6993435    216.29934   -1.5584665    124.88047         -0.5          0.5     27689.96 
 8350000    1702.9088   -34498.774    -2.814177    216.41418   -1.6247656    124.94677         -0.5          0.5    27748.068 
 8375000    1700.4849    -34524.84   -2.7021717    216.30217   -1.5600993     124.8821         -0.5          0.5    27691.391 
 8400000     1700.404   -34505.681    -2.824012    216.42401   -1.6304439    124.95244         -0.5          0.5    27753.048 
 8425000    1723.3835    -34519.92   -2.7230049      216.323   -1.5721274    124.89413         -0.5          0.5    27701.928 
 8450000    1729.3183   -34473.411   -2.8184446    216.41844   -1.6272295    124.94923         -0.5          0.5    27750.229 
 8475000     1711.759    -34485.93   -2.7472605    216.34726   -1.5861314    124.90813         -0.5          0.5      27714.2 
 8500000    1719.8045   -34485.132   -2.8143649    216.41436   -1.6248741    124.94687         -0.5          0.5    27748.164 
 8525000    1757.7901   -34450.456   -2.7749341    216.37493   -1.6021087    124.92411         -0.5          0.5    27728.204 
 8550000    1743.9339   -34452.879    -2.815526    216.41553   -1.6255444    124.94754         -0.5          0.5    27748.751 
 8575000    1758.1989   -34422.156   -2.7906692    216.39067   -1.6111934    124.93319         -0.5          0.5    27736.168 
 8600000    1764.7165   -34428.042   -2.8037745    216.40377   -1.6187597    124.94076         -0.5          0.5    27742.802 
 8625000    1751.5525   -34463.494   -2.8279869    216.42799   -1.6327388    124.95474         -0.5          0.5    27755.061 
 8650000    1770.7424   -34447.774   -2.7939655    216.39397   -1.6130965     124.9351         -0.5          0.5    27737.837 
 8675000    1755.8583   -34430.985   -2.8582993     216.4583   -1.6502396    124.97224         -0.5          0.5    27770.411 
 8700000     1753.621    -34437.31   -2.7871612    216.38716    -1.609168    124.93117         -0.5          0.5    27734.392 
 8725000    1787.4421   -34409.542   -2.8800359    216.48004   -1.6627892    124.98479         -0.5          0.5    27781.422 
 8750000    1752.7013   -34455.464   -2.7811181    216.38112   -1.6056791    124.92768         -0.5          0.5    27731.334 
 8775000    1771.4859   -34424.695   -2.9008654    216.50087   -1.6748152    124.99682         -0.5          0.5    27791.975 
 8800000    1816.6758    -34407.07   -2.7838863    216.38389   -1.6072773    124.92928         -0.5          0.5    27732.735 
 8825000    1809.9515   -34379.386   -2.9177721    216.51777   -1.6845763    125.00658         -0.5          0.5    27800.542 
 8850000    1805.9089   -34397.503   -2.7900918    216.39009     -1.61086    124.93286         -0.5          0.5    27735.876 
 8875000    1801.1011   -34392.309   -2.9337403    216.53374   -1.6937955     125.0158         -0.5          0.5    27808.635 
 8900000     1804.719   -34405.829   -2.8006356    216.40064   -1.6169475    124.93895         -0.5          0.5    27741.213 
 8925000     1801.338   -34396.738    -2.942501     216.5425   -1.6988535    125.02085         -0.5          0.5    27813.075 
 8950000    1820.8815   -34374.651   -2.8014131    216.40141   -1.6173964     124.9394         -0.5          0.5    27741.607 
 8975000    1823.5763    -34334.78   -2.9505324    216.55053   -1.7034904    125.02549         -0.5          0.5    27817.146 
 9000000    1801.7061    -34388.85   -2.8328728    216.43287   -1.6355596    124.95756         -0.5          0.5    27757.535 
 9025000    1857.4288   -34331.993   -2.9384696    216.53847    -1.696526    125.01853         -0.5          0.5    27811.032 
 9050000    1851.4669    -34344.98   -2.8801726    216.48017   -1.6628682    124.98487         -0.5          0.5    27781.491 
 9075000    1862.3393   -34325.132    -2.899045    216.49904   -1.6737642    124.99576         -0.5          0.5    27791.053 
 9100000    1820.6601    -34345.44   -2.9339706    216.53397   -1.6939285    125.01593         -0.5          0.5    27808.751 
 9125000    1837.0943   -34361.073   -2.8685282    216.46853   -1.6561453    124.97815         -0.5          0.5    27775.593 
 9150000    1864.2473    -34310.11   -2.9753749    216.57537   -1.7178332    125.03983         -0.5          0.5    27829.741 
 9175000    1910.2052     -34294.6   -2.8522379    216.45224   -1.6467401    124.96874         -0.5          0.5    27767.341 
 9200000    1866.8178   -34305.727   -3.0063146    216.60631   -1.7356963     125.0577         -0.5          0.5     27845.43 
 9225000    1871.3962   -34312.713   -2.8604196    216.46042   -1.6514638    124.97346         -0.5          0.5    27771.485 
 9250000    1919.4563   -34272.457   -3.0095093    216.60951   -1.7375408    125.05954         -0.5          0.5    27847.051 
 9275000    1888.6164   -34299.094   -2.8795188    216.47952   -1.6624907    124.98449         -0.5          0.5     27781.16 
 9300000    1883.3558   -34282.746   -3.0012395    216.60124   -1.7327662    125.05477         -0.5          0.5    27842.856 
 9325000    1878.2829   -34300.075   -2.9095251    216.50953   -1.6798148    125.00181         -0.5          0.5    27796.363 
 9350000    1855.6863   -34310.597    -2.989758    216.58976   -1.7261373    125.04814         -0.5          0.5    27837.034 
 9375000    1953.0177    -34260.69   -2.9346138    216.53461   -1.6942999     125.0163         -0.5          0.5    27809.077 
 9400000    1901.7342   -34293.241   -2.9916201    216.59162   -1.7272124    125.04921         -0.5          0.5    27837.978 
 9425000    1928.7669   -34259.438   -2.9536988     216.5537   -1.7053186    125.02732         -0.5          0.5    27818.751 
 9450000    1907.0265   -34263.499   -2.9874763    216.58748     -1.72482    125.04682         -0.5          0.5    27835.877 
 9475000    1939.7082   -34260.673   -2.9818338    216.58183   -1.7215623    125.04356         -0.5          0.5    27833.016 
 9500000    1919.4582   -34273.221   -2.9847395    216.58474   -1.7232399    125.04524         -0.5          0.5    27834.489 
 9525000    1965.9983    -34237.26   -3.0005766    216.60058   -1.7323834    125.05438         -0.5          0.5     27842.52 
 9550000    1982.7547    -34190.75   -2.9779605    216.57796    -1.719326    125.04133         -0.5          0.5    27831.052 
 9575000    1913.1998   -34253.397   -3.0345139    216.63451   -1.7519772    125.07398         -0.5          0.5    27859.734 
 9600000    1950.4006   -34235.387   -2.9717825    216.57178   -1.7157592    125.03776         -0.5          0.5    27827.919 
 9625000    1965.3556   -34210.235   -3.0512994     216.6513   -1.7616683    125.08367         -0.5          0.5     27868.25 
 9650000    1970.1296   -34217.215   -2.9709354    216.57094   -1.7152701    125.03727         -0.5          0.5     27827.49 
 9675000    1957.1053   -34216.283   -3.0780379    216.67804   -1.7771057    125.09911         -0.5          0.5    27881.818 
 9700000    1970.6657    -34216.66   -2.9624884    216.56249   -1.7103932    125.03239         -0.5          0.5    27823.207 
 9725000    1966.6194   -34199.139   -3.1026274    216.70263   -1.7913025     125.1133         -0.5          0.5    27894.299 
 9750000    1950.7181   -34198.225   -2.9651213    216.56512   -1.7119133    125.03391         -0.5          0.5    27824.542 
 9775000    1950.4194   -34185.475   -3.1171102    216.71711   -1.7996642    125.12166         -0.5          0.5    27901.651 
 9800000    2006.4721   -34182.057   -2.9786886    216.57869   -1.7197464    125.04175         -0.5          0.5    27831.421 
 9825000    1968.7668   -34187.119   -3.1115493    216.71155   -1.7964536    125.11845         -0.5          0.5    27898.828 
 9850000    1962.5362   -34197.518   -3.0140129    216.61401   -1.7401409    125.06214         -0.5          0.5    27849.335 
 9875000    1940.4961   -34181.822   -3.0871751    216.68718   -1.7823811    125.10438         -0.5          0.5    27886.456 
 9900000     2069.217    -34116.92   -3.0551206    216.65512   -1.7638745    125.08587         -0.5          0.5    27870.189 
 9925000    2028.9799   -34140.552   -3.0663772    216.66638   -1.7703734    125.09237         -0.5          0.5    27875.901 
 9950000     2035.485   -34129.545   -3.1206852    216.72069   -1.8017282    125.12373         -0.5          0.5    27903.466 
 9975000    2055.9327   -34144.449   -3.0051158    216.60512   -1.7350042      125.057         -0.5          0.5    27844.822 
10000000    2006.8975   -34108.067   -3.2082073    216.80821   -1.8522591    125.17426         -0.5          0.5    27947.919 
10025000    2011.9243   -34189.978   -2.9456875    216.54569   -1.7006932    125.02269         -0.5          0.5     27814.69 
10050000    2035.0368   -34090.177   -3.2519064    216.85191   -1.8774888    125.19949         -0.5          0.5    27970.127 
10075000    2034.2947   -34125.125   -2.9686426    216.56864   -1.7139464    125.03595         -0.5          0.5    27826.327 
10100000    2070.4027   -34064.001   -3.2220176    216.82202   -1.8602325    125.18223         -0.5          0.5    27954.937 
10125000    2020.8692   -34121.557   -3.0190256    216.61903    -1.743035    125.06503         -0.5          0.5    27851.877 
10150000    2052.9848   -34093.508   -3.1998338    216.79983   -1.8474246    125.16942         -0.5          0.5    27943.665 
10175000    2030.7031   -34088.521   -3.0565678    216.65657     -1.76471    125.08671         -0.5          0.5    27870.923 
10200000    2099.6906   -34076.102   -3.1888141    216.78881   -1.8410624    125.16306         -0.5          0.5    27938.066 
10225000    2094.2963   -34074.571   -3.0840277    216.68403   -1.7805639    125.10256         -0.5          0.5    27884.858 
10250000     2046.702   -34084.049   -3.1708585    216.77086   -1.8306957     125.1527         -0.5          0.5    27928.945 
10275000    2089.9689   -34060.083   -3.1206344    216.72063   -1.8016989     125.1237         -0.5          0.5     27903.44 
10300000    2087.6447   -34043.504   -3.1662122    216.76621   -1.8280132    125.15001         -0.5          0.5    27926.585 
10325000    2158.3413   -34029.198   -3.1433517    216.74335   -1.8148147    125.13681         -0.5          0.5    27914.975 
10350000    2065.7506   -34080.945   -3.1666419    216.76664   -1.8282613    125.15026         -0.5          0.5    27926.803 
10375000    2096.0679   -34046.366   -3.1634058    216.76341   -1.8263929    125.14839         -0.5          0.5     27925.16 
10400000    2086.6154   -34056.679   -3.1557397    216.75574   -1.8219669    125.14397         -0.5          0.5    27921.266 
10425000    2136.1547   -34010.601   -3.1944703    216.79447    -1.844328    125.16633         -0.5          0.5     27940.94 
10450000    2117.1524   -34024.265   -3.1564329    216.75643   -1.8223671    125.14437         -0.5          0.5    27921.618 
10475000     2111.383   -34013.997   -3.2127413    216.81274   -1.8548768    125.17688         -0.5          0.5    27950.223 
10500000    2140.5365   -34010.509   -3.1553607    216.75536   -1.8217481    125.14375         -0.5          0.5    27921.074 
10525000     2113.463   -34005.844   -3.2343508    216.83435    -1.867353    125.18935         -0.5          0.5    27961.204 
10550000    2163.5682   -33983.443   -3.1536531    216.75365   -1.8207622    125.14276         -0.5          0.5    27920.207 
10575000    2110.1133   -34007.759   -3.2574731    216.85747   -1.8807027     125.2027         -0.5          0.5    27972.957 
10600000    2171.9765   -34006.976   -3.1446938    216.74469   -1.8155895    125.13759         -0.5          0.5    27915.657 
10625000    2107.5613   -34023.924   -3.2856604    216.88566   -1.8969766    125.21898         -0.5          0.5    27987.287 
10650000    2118.5703   -34005.412   -3.1404369    216.74044   -1.8131318    125.13513         -0.5          0.5    27913.495 
10675000    2110.2688   -33985.913   -3.3061287    216.90613    -1.908794    125.23079         -0.5          0.5    27997.696 
10700000    2183.8145   -33968.633    -3.142732    216.74273   -1.8144569    125.13646         -0.5          0.5    27914.661 
10725000    2191.0916   -33918.379   -3.3242844    216.92428   -1.9192762    125.24128         -0.5          0.5     28006.93 
10750000    2163.7295   -33972.274   -3.1622373    216.76224   -1.8257183    125.14772         -0.5          0.5    27924.566 
10775000    2175.2418   -33956.146   -3.3006983     216.9007   -1.9056588    125.22766         -0.5          0.5    27994.934 
10800000    2176.1141   -33959.475   -3.2161561    216.81616   -1.8568483    125.17885         -0.5          0.5    27951.958 
10825000    2206.1842   -33918.977   -3.2622381    216.86224   -1.8834538    125.20545         -0.5          0.5    27975.379 
10850000    2244.3892   -33899.932   -3.2800803    216.88008    -1.893755    125.21575         -0.5          0.5     27984.45 
10875000    2136.4123   -33957.176    -3.220064    216.82006   -1.8591046     125.1811         -0.5          0.5    27953.944 
10900000    2241.9417   -33893.142   -3.3227401    216.92274   -1.9183846    125.24038         -0.5          0.5    28006.144 
10925000    2212.5052   -33921.507   -3.2074245    216.80742   -1.8518071    125.17381         -0.5          0.5    27947.521 
10950000    2214.5274   -33897.947   -3.3445378    216.94454   -1.9309695    125.25297         -0.5          0.5    28017.232 
10975000    2257.0279   -33905.304   -3.2252908    216.82529   -1.8621222    125.18412         -0.5          0.5      27956.6 
11000000    2226.9768    -33904.64   -3.3448863    216.94489   -1.9311707    125.25317         -0.5          0.5     28017.41 
11025000    2266.4431   -33870.591   -3.2422132    216.84221   -1.8718924    125.19389         -0.5          0.5      27965.2 
11050000    2272.5727   -33857.812   -3.3441696    216.94417   -1.9307569    125.25276         -0.5          0.5    28017.045 
11075000    2290.7333   -33868.587   -3.2691316    216.86913   -1.8874337    125.20943         -0.5          0.5    27978.884 
11100000    2271.9643   -33840.914   -3.3391885    216.93919   -1.9278811    125.24988         -0.5          0.5    28014.511 
11125000    2227.5082   -33898.759   -3.2835193    216.88352   -1.8957405    125.21774         -0.5          0.5    27986.199 
11150000    2343.9444    -33797.03   -3.3482157    216.94822    -1.933093    125.25509         -0.5          0.5    28019.103 
11175000    2280.5623   -33839.842   -3.2993491    216.89935   -1.9048798    125.22688         -0.5          0.5    27994.248 
11200000    2240.3403   -33847.097   -3.3473588    216.94736   -1.9325982     125.2546         -0.5          0.5    28018.668 
11225000    2297.4775   -33863.887   -3.3172603    216.91726   -1.9152209    125.23722         -0.5          0.5    28003.357 
11250000    2227.5479   -33857.915   -3.3457439    216.94574   -1.9316658    125.25367         -0.5          0.5    28017.846 
11275000    2260.3212   -33841.842   -3.3487623    216.94876   -1.9334085    125.25541         -0.5          0.5    28019.382 
11300000    2288.7209   -33852.613   -3.3304933    216.93049   -1.9228609    125.24486         -0.5          0.5    28010.088 
11325000     2219.541   -33889.807   -3.3816871    216.98169   -1.9524177    125.27442         -0.5          0.5    28036.135 
11350000    2338.6509   -33787.205   -3.3206719    216.92067   -1.9171906    125.23919         -0.5          0.5    28005.092 
11375000    2303.3606   -33812.605   -3.4103682    217.01037   -1.9689767    125.29098         -0.5          0.5    28050.733 
11400000    2344.7625   -33788.449   -3.3097269    216.90973   -1.9108714    125.23287         -0.5          0.5    27999.526 
11425000    2305.2729   -33770.817   -3.4437127    217.04371   -1.9882282    125.31023         -0.5          0.5    28067.709 
11450000    2361.4969   -33767.258   -3.2959399    216.89594   -1.9029115    125.22491         -0.5          0.5    27992.514 
11475000    2352.5693   -33739.435   -3.4808332    217.08083   -2.0096597    125.33166         -0.5          0.5    28086.614 
11500000    2350.9562   -33777.299   -3.2871012     216.8871   -1.8978085    125.21981         -0.5          0.5     27988.02 
11525000     2328.577    -33778.18   -3.5019701    217.10197   -2.0218631    125.34386         -0.5          0.5    28097.381 
11550000    2326.2227   -33800.682   -3.2948667    216.89487   -1.9022919    125.22429         -0.5          0.5    27991.969 
11575000    2317.8572    -33767.71   -3.4989028     217.0989   -2.0200922    125.34209         -0.5          0.5    28095.818 
11600000    2350.6097   -33756.589   -3.3321895    216.93219   -1.9238402    125.24584         -0.5          0.5    28010.951 
11625000    2299.0411   -33761.179    -3.468887    217.06889   -2.0027626    125.32476         -0.5          0.5    28080.529 
11650000    2323.1081   -33746.487   -3.3848371    216.98484   -1.9542363    125.27624         -0.5          0.5    28037.738 
11675000     2358.503   -33747.775   -3.4359178    217.03592   -1.9837278    125.30573         -0.5          0.5     28063.74 
11700000    2392.2066   -33717.622   -3.4346579    217.03466   -1.9830004      125.305         -0.5          0.5    28063.098 
11725000    2328.0105   -33734.177   -3.4033547    217.00335   -1.9649275    125.28693         -0.5          0.5    28047.163 
11750000    2431.2551   -33686.014   -3.4876402    217.08764   -2.0135897    125.33559         -0.5          0.5    28090.081 
11775000    2416.2789    -33689.89   -3.3767374    216.97674     -1.94956    125.27156         -0.5          0.5    28033.616 
11800000    2415.3488   -33660.963   -3.5159284    217.11593   -2.0299219    125.35192         -0.5          0.5    28104.493 
11825000    2326.6412   -33756.416   -3.3919585    216.99196   -1.9583479    125.28035         -0.5          0.5    28041.362 
11850000     2315.132    -33768.31   -3.5093303    217.10933   -2.0261125    125.34811         -0.5          0.5    28101.131 
11875000     2424.291   -33714.683   -3.4179706    217.01797    -1.973366    125.29537         -0.5          0.5    28054.603 
11900000    2420.8226   -33629.355   -3.5127723    217.11277   -2.0280998     125.3501         -0.5          0.5    28102.885 
11925000    2467.7535   -33649.708   -3.4331001     217.0331    -1.982101     125.3041         -0.5          0.5    28062.305 
11950000    2414.0561   -33698.744   -3.5119458    217.11195   -2.0276226    125.34962         -0.5          0.5    28102.464 
11975000    2425.1563   -33678.435    -3.461478    217.06148    -1.998485    125.32048         -0.5          0.5    28076.756 
12000000    2478.7806    -33648.36    -3.499692    217.09969   -2.0205478    125.34255         -0.5          0.5     28096.22 
12025000    2403.3999   -33673.188   -3.4832827    217.08328   -2.0110739    125.33307         -0.5          0.5    28087.861 
12050000    2492.3748   -33628.509   -3.4939278    217.09393   -2.0172199    125.33922         -0.5          0.5    28093.284 
12075000    2500.3103   -33618.729   -3.5083497    217.10835   -2.0255464    125.34755         -0.5          0.5    28100.631 
12100000    2448.1852    -33657.78   -3.4966576    217.09666   -2.0187959     125.3408         -0.5          0.5    28094.675 
12125000    2438.0379   -33637.184   -3.5332088    217.13321   -2.0398988     125.3619         -0.5          0.5    28113.298 
12150000    2487.7995   -33616.042   -3.4917902    217.09179   -2.0159857    125.33799         -0.5          0.5    28092.195 
12175000     2435.716   -33608.453   -3.5588177    217.15882   -2.0546841    125.37668         -0.5          0.5     28126.35 
12200000    2468.1814   -33614.456   -3.4767213    217.07672   -2.0072857    125.32929         -0.5          0.5    28084.519 
12225000    2465.0304   -33588.265   -3.5966041     217.1966      -2.0765     125.3985         -0.5          0.5    28145.614 
12250000    2441.7637   -33623.217   -3.4615794    217.06158   -1.9985435    125.32054         -0.5          0.5    28076.807 
12275000    2471.9175   -33591.497   -3.6421308    217.24213   -2.1027849    125.42478         -0.5          0.5    28168.833 
12300000    2574.0101   -33561.747   -3.4331429    217.03314   -1.9821257    125.30413         -0.5          0.5    28062.327 
12325000    2525.2538   -33570.857    -3.673417    217.27342    -2.120848    125.44285         -0.5          0.5    28184.795 
12350000    2451.9618   -33604.361    -3.436134    217.03613   -1.9838526    125.30585         -0.5          0.5     28063.85 
12375000    2505.3629   -33554.923   -3.6771359    217.27714   -2.1229951      125.445         -0.5          0.5    28186.692 
12400000    2498.2884   -33582.848   -3.4621158    217.06212   -1.9988532    125.32085         -0.5          0.5     28077.08 
12425000    2486.7448    -33545.03   -3.6549501    217.25495   -2.1101861    125.43219         -0.5          0.5    28175.373 
12450000    2519.2773   -33556.226   -3.5257616    217.12576   -2.0355991     125.3576         -0.5          0.5    28109.503 
12475000    2518.1608   -33550.643   -3.6051533    217.20515   -2.0814359    125.40344         -0.5          0.5    28149.974 
12500000    2492.2471   -33533.487   -3.5939608    217.19396    -2.074974    125.39697         -0.5          0.5    28144.266 
12525000    2515.3694   -33572.312   -3.5525598    217.15256   -2.0510711    125.37307         -0.5          0.5    28123.161 
12550000    2548.1826   -33506.442   -3.6387179    217.23872   -2.1008145    125.42281         -0.5          0.5    28167.092 
12575000    2535.8509   -33548.956   -3.5439355    217.14394   -2.0460918    125.36809         -0.5          0.5    28118.765 
12600000    2487.0281    -33543.62   -3.6735471    217.27355   -2.1209231    125.44292         -0.5          0.5    28184.861 
12625000    2587.4309   -33498.553   -3.5438722    217.14387   -2.0460553    125.36806         -0.5          0.5    28118.733 
12650000    2547.4103   -33507.028   -3.6988445    217.29884   -2.1355286    125.45753         -0.5          0.5    28197.771 
12675000    2582.5075   -33517.685   -3.5355276    217.13553   -2.0412375    125.36324         -0.5          0.5     28114.48 
12700000    2565.3952   -33498.167   -3.7061242    217.30612   -2.1397315    125.46173         -0.5          0.5    28201.486 
12725000    2506.9519   -33558.443   -3.5623079    217.16231   -2.0566991     125.3787         -0.5          0.5    28128.129 
12750000    2550.4406   -33483.274   -3.6970003      217.297   -2.1344638    125.45646         -0.5          0.5     28196.83 
12775000    2562.6906   -33481.653   -3.5906951     217.1907   -2.0730885    125.39509         -0.5          0.5    28142.601 
12800000    2614.5669   -33421.059   -3.6757681    217.27577   -2.1222054    125.44421         -0.5          0.5    28185.994 
12825000    2595.5147   -33498.991   -3.6288669    217.22887    -2.095127    125.41713         -0.5          0.5    28162.067 
12850000    2616.9722   -33456.129   -3.6666047     217.2666   -2.1169149    125.43891         -0.5          0.5    28181.319 
12875000    2611.8693   -33429.175   -3.6578313    217.25783   -2.1118496    125.43385         -0.5          0.5    28176.843 
12900000    2653.5245   -33402.553   -3.6658253    217.26583   -2.1164649    125.43846         -0.5          0.5    28180.921 
12925000    2618.6874   -33413.931   -3.6892862    217.28929   -2.1300101    125.45201         -0.5          0.5    28192.893 
12950000    2605.1131   -33466.829   -3.6425849    217.24258   -2.1030471    125.42505         -0.5          0.5    28169.065 
12975000    2577.4984   -33440.367   -3.7263512    217.32635   -2.1514096    125.47341         -0.5          0.5    28211.811 
13000000    2568.8439    -33459.02    -3.629362    217.22936   -2.0954128    125.41741         -0.5          0.5     28162.32 
13025000    2628.6662   -33403.625    -3.776516    217.37652   -2.1803722    125.50237         -0.5          0.5    28237.426 
13050000    2620.6164    -33423.02   -3.5937332    217.19373   -2.0748425    125.39684         -0.5          0.5     28144.15 
13075000    2661.5325   -33383.986   -3.8173225    217.41732   -2.2039318    125.52593         -0.5          0.5    28258.271 
13100000    2664.7906   -33439.876   -3.5755629    217.17556   -2.0643519    125.38635         -0.5          0.5    28134.886 
13125000    2669.3449   -33357.137   -3.8660901    217.46609   -2.2320878    125.55409         -0.5          0.5    28283.193 
13150000    2681.8123    -33401.32   -3.5423646    217.14236   -2.0451849    125.36718         -0.5          0.5    28117.964 
13175000    2662.1933   -33401.911    -3.891707    217.49171   -2.2468777    125.56888         -0.5          0.5    28296.288 
13200000    2681.0203   -33389.976   -3.5735397    217.17354   -2.0631838    125.38518         -0.5          0.5    28133.855 
13225000    2659.6189   -33364.548   -3.8450981     217.4451   -2.2199681    125.54197         -0.5          0.5    28272.464 
13250000    2684.4295   -33361.425   -3.6683045     217.2683   -2.1178963     125.4399         -0.5          0.5    28182.186 
13275000      2682.61   -33346.705   -3.7661011     217.3661   -2.1743592    125.49636         -0.5          0.5    28232.107 
13300000    2685.0933   -33348.593   -3.7510801    217.35108   -2.1656868    125.48769         -0.5          0.5    28224.437 
13325000    2702.2949   -33369.365   -3.7330909    217.33309   -2.1553008     125.4773         -0.5          0.5    28215.252 
13350000    2718.2399   -33317.234   -3.7822701    217.38227   -2.1836943    125.50569         -0.5          0.5    28240.365 
13375000    2709.6136   -33324.335   -3.7247303    217.32473   -2.1504737    125.47247         -0.5          0.5    28210.984 
13400000    2720.5325    -33320.02   -3.8077115    217.40771   -2.1983829    125.52038         -0.5          0.5    28253.361 
13425000    2664.6604   -33361.294   -3.7188678    217.31887    -2.147089    125.46909         -0.5          0.5    28207.991 
13450000    2700.5693   -33309.728   -3.8256207    217.42562   -2.2087228    125.53072         -0.5          0.5    28262.511 
13475000    2737.9451   -33297.658    -3.725832    217.32583   -2.1511098    125.47311         -0.5          0.5    28211.546 
13500000    2774.2852   -33249.408   -3.8294503    217.42945   -2.2109339    125.53293         -0.5          0.5    28264.468 
13525000    2754.0256   -33303.524   -3.7357727    217.33577   -2.1568491    125.47885         -0.5          0.5    28216.621 
13550000    2753.0157   -33262.732   -3.8485246    217.44852   -2.2219464    125.54395         -0.5          0.5    28274.215 
13575000    2793.3137   -33256.638   -3.7473079    217.34731   -2.1635089    125.48551         -0.5          0.5    28222.511 
13600000    2735.6616   -33224.925   -3.8601402    217.46014   -2.2286527    125.55065         -0.5          0.5    28280.152 
13625000    2721.5746   -33305.657   -3.7595649    217.35956   -2.1705855    125.49259         -0.5          0.5    28228.769 
13650000      2838.61   -33216.605   -3.8573775    217.45738   -2.2270576    125.54906         -0.5          0.5     28278.74 
13675000     2755.698    -33249.85   -3.7783876    217.37839   -2.1814528    125.50345         -0.5          0.5    28238.382 
13700000    2790.2567   -33256.158   -3.8553786    217.45538   -2.2259036     125.5479         -0.5          0.5    28277.718 
13725000      2788.84   -33242.887    -3.807686    217.40769   -2.1983682    125.52037         -0.5          0.5    28253.348 
13750000    2813.4151   -33213.854   -3.8341324    217.43413   -2.2136371    125.53564         -0.5          0.5     28266.86 
13775000    2779.0939    -33250.02   -3.8487147    217.44871   -2.2220561    125.54406         -0.5          0.5    28274.312 
13800000    2780.8801   -33242.647   -3.8040577    217.40406   -2.1962734    125.51827         -0.5          0.5    28251.494 
13825000    2683.6434   -33276.024   -3.9215579    217.52156   -2.2641122    125.58611         -0.5          0.5    28311.552 
13850000     2820.651   -33257.016   -3.7365349    217.33653   -2.1572891    125.47929         -0.5          0.5     28217.01 
13875000      2840.15   -33168.668   -3.9986637    217.59866   -2.3086292    125.63063         -0.5          0.5    28350.998 
13900000    2834.8378   -33228.394   -3.7083352    217.30834    -2.141008    125.46301         -0.5          0.5    28202.615 
13925000    2793.8773   -33182.823   -4.0157168    217.61572   -2.3184748    125.64047         -0.5          0.5    28359.725 
13950000    2858.9465   -33167.964   -3.7331008     217.3331   -2.1553064    125.47731         -0.5          0.5    28215.257 
13975000    2839.7227   -33157.242   -4.0015833    217.60158   -2.3103148    125.63231         -0.5          0.5    28352.492 
14000000    2823.5108    -33223.97   -3.7760305    217.37603   -2.1800919    125.50209         -0.5          0.5    28237.178 
14025000    2895.5082   -33108.401   -3.9780021      217.578   -2.2967002     125.6187         -0.5          0.5    28340.425 
14050000    2865.0925   -33169.599   -3.8240275    217.42403    -2.207803     125.5298         -0.5          0.5    28261.697 
14075000    2837.9022   -33156.685    -3.939292    217.53929   -2.2743509    125.59635         -0.5          0.5    28320.622 
14100000    2850.9316   -33157.641   -3.8708601    217.47086   -2.2348418    125.55684         -0.5          0.5    28285.631 
14125000    2845.3058   -33119.541   -3.9057921    217.50579   -2.2550098    125.57701         -0.5          0.5     28303.49 
14150000    2852.2578   -33149.807   -3.9250503    217.52505   -2.2661285    125.58813         -0.5          0.5    28313.338 
14175000    2829.2059   -33140.515   -3.8871809    217.48718   -2.2442646    125.56626         -0.5          0.5    28293.974 
14200000    2850.6676   -33132.326   -3.9606634    217.56066   -2.2866897    125.60869         -0.5          0.5    28331.554 
14225000    2928.0618   -33077.646   -3.8756572    217.47566   -2.2376114    125.55961         -0.5          0.5    28288.083 
14250000    2965.8752   -33083.199   -3.9931083    217.59311   -2.3054218    125.62742         -0.5          0.5    28348.155 
14275000    2883.2781   -33149.297   -3.8669266    217.46693   -2.2325708    125.55457         -0.5          0.5     28283.62 
14300000    2894.3432   -33103.408    -4.003732    217.60373   -2.3115554    125.63356         -0.5          0.5    28353.592 
14325000    2904.0317   -33117.033   -3.8785727    217.47857   -2.2392947    125.56129         -0.5          0.5    28289.574 
14350000    2871.7437   -33096.836   -4.0182545    217.61825     -2.31994    125.64194         -0.5          0.5    28361.024 
14375000    2908.5925   -33112.828   -3.8930729    217.49307   -2.2476664    125.56967         -0.5          0.5    28296.987 
14400000    2920.7142   -33091.879   -4.0093949    217.60939   -2.3148249    125.63682         -0.5          0.5     28356.49 
14425000     2861.047   -33108.214    -3.920963    217.52096   -2.2637687    125.58577         -0.5          0.5    28311.248 
14450000    2837.6826   -33113.503   -4.0079654    217.60797   -2.3139995      125.636         -0.5          0.5    28355.758 
14475000    2938.6322   -33077.799   -3.9518097    217.55181   -2.2815781    125.60358         -0.5          0.5    28327.025 
14500000    2895.4936   -33070.376   -3.9765408    217.57654   -2.2958566    125.61786         -0.5          0.5    28339.677 
14525000    3013.5861    -33032.15   -4.0128571    217.61286   -2.3168238    125.63882         -0.5          0.5    28358.262 
14550000    2913.2992   -33049.012   -3.9296802    217.52968   -2.2688016     125.5908         -0.5          0.5    28315.706 
14575000    2966.6575   -32974.515   -4.0966439    217.69664   -2.3651981     125.6872         -0.5          0.5    28401.162 
14600000    2981.5178   -33033.877    -3.853188    217.45319   -2.2246388    125.54664         -0.5          0.5    28276.598 
14625000    2947.5263   -32994.873    -4.170497     217.7705   -2.4078372    125.72984         -0.5          0.5    28439.003 
14650000    2955.5833   -33069.021   -3.8417986     217.4418   -2.2180632    125.54006         -0.5          0.5    28270.778 
14675000    2960.6958    -33021.23   -4.1709496    217.77095   -2.4080985     125.7301         -0.5          0.5    28439.235 
14700000    3001.3872   -33030.207   -3.8786949    217.47869   -2.2393652    125.56137         -0.5          0.5    28289.636 
14725000    3002.9573   -32978.479   -4.1373496    217.73735   -2.3886996     125.7107         -0.5          0.5    28422.016 
14750000    2963.8448    -33030.88   -3.9340701    217.53407   -2.2713361    125.59334         -0.5          0.5    28317.951 
14775000    3023.8069   -32974.686    -4.104873    217.70487   -2.3699492    125.69195         -0.5          0.5    28405.377 
14800000    3051.2079   -32953.985    -3.974159    217.57416   -2.2944814    125.61648         -0.5          0.5    28338.459 
14825000    2996.2545   -32976.382   -4.0934632    217.69346   -2.3633617    125.68536         -0.5          0.5    28399.533 
14850000    2979.2373    -32982.92   -4.0057827    217.60578   -2.3127394    125.63474         -0.5          0.5    28354.641 
14875000    3069.8571   -32935.691   -4.0713885    217.67139   -2.3506169    125.67262         -0.5          0.5    28388.227 
14900000    2957.2341    -33011.38   -4.0470969     217.6471   -2.3365921    125.65859         -0.5          0.5    28375.789 
14925000    3037.5257   -32987.322   -4.0532109    217.65321   -2.3401221    125.66212         -0.5          0.5     28378.92 
14950000    3040.8078   -32955.872   -4.0828838    217.68288   -2.3572537    125.67925         -0.5          0.5    28394.114 
14975000     3065.812   -32949.667   -4.0404802    217.64048    -2.332772    125.65477         -0.5          0.5    28372.402 
15000000    2982.8362   -32943.469   -4.1153777    217.71538   -2.3760141    125.69801         -0.5          0.5    28410.758 
15025000    3121.2612   -32863.608    -4.023343    217.62334   -2.3228778    125.64488         -0.5          0.5    28363.629 
15050000    3083.0428   -32865.289   -4.1477084    217.74771   -2.3946802    125.71668         -0.5          0.5    28427.324 
15075000    3032.7923   -32943.462   -4.0218599    217.62186   -2.3220216    125.64402         -0.5          0.5     28362.87 
15100000    3051.6751   -32865.222   -4.1450731    217.74507   -2.3931587    125.71516         -0.5          0.5    28425.973 
15125000    3103.0147     -32903.5    -4.038931    217.63893   -2.3318776    125.65388         -0.5          0.5    28371.609 
15150000    3021.1712   -32937.606   -4.1730738    217.77307    -2.409325    125.73132         -0.5          0.5    28440.324 
15175000    3161.8558   -32799.717   -4.0370334    217.63703    -2.330782    125.65278         -0.5          0.5    28370.637 
15200000      3018.57   -32899.437    -4.189072    217.78907   -2.4185615    125.74056         -0.5          0.5    28448.524 
15225000    3057.2033   -32880.814   -4.0375566    217.63756    -2.331084    125.65308         -0.5          0.5    28370.905 
15250000    3007.7896   -32916.814   -4.1981668    217.79817   -2.4238124    125.74581         -0.5          0.5    28453.187 
15275000    3217.1263   -32814.655   -4.0572365    217.65724   -2.3424462    125.66445         -0.5          0.5    28380.981 
[...]
247750000    2155.0758   -32222.678   -20.774145    234.37415   -11.993956    135.31596         -0.5          0.5    37585.874 
248000000    2170.7998   -32220.904   -20.519003    234.11901    -11.84665    135.16865         -0.5          0.5    37435.684 
248250000    2221.8537   -32175.185   -20.575741    234.17575   -11.879408    135.20141         -0.5          0.5    37469.057 
248500000    2178.6525   -32224.121   -20.848166    234.44817   -12.036692    135.35869         -0.5          0.5    37629.502 
248750000    2142.6309   -32210.931   -20.895743    234.49575   -12.064161    135.38616         -0.5          0.5    37657.558 
249000000    2217.5446    -32194.05   -20.628341    234.22834   -11.909776    135.23178         -0.5          0.5    37500.009 
249250000    2140.5017   -32255.245   -20.414051    234.01406   -11.786056    135.10806         -0.5          0.5    37373.991 
249500000    2144.4013   -32266.816   -20.660045    234.26005   -11.928081    135.25008         -0.5          0.5    37518.672 
249750000    2162.8678   -32220.428   -21.010625    234.61063   -12.130488    135.45249         -0.5          0.5    37725.346 
250000000    2132.9592   -32267.626   -20.919648    234.51965   -12.077963    135.39997         -0.5          0.5    37671.659 
250250000    2130.6727   -32267.893   -20.584775    234.18478   -11.884623    135.20663         -0.5          0.5    37474.372 
250500000     2146.613   -32268.987   -20.499259    234.09926   -11.835251    135.15725         -0.5          0.5    37424.075 
250750000     2122.334   -32289.792   -20.721902    234.32191   -11.963794     135.2858         -0.5          0.5    37555.096 
251000000    2098.2684   -32271.452   -20.911653    234.51166   -12.073347    135.39535         -0.5          0.5    37666.943 
251250000    2114.4498   -32290.754   -20.773674    234.37368   -11.993685    135.31569         -0.5          0.5    37585.596 
251500000    2097.1602   -32329.302    -20.61393    234.21393   -11.901456    135.22346         -0.5          0.5    37491.528 
251750000    2066.6748   -32318.233   -20.641924    234.24193   -11.917619    135.23962         -0.5          0.5    37508.004 
252000000    2131.1227   -32285.923    -20.75306    234.35306   -11.981783    135.30379         -0.5          0.5    37573.451 
252250000    2131.0018   -32303.743   -20.763759    234.36376    -11.98796    135.30996         -0.5          0.5    37579.754 
252500000    2069.2746   -32306.466    -20.67903    234.27903   -11.939042    135.26104         -0.5          0.5    37529.849 
252750000    2126.6334   -32313.377   -20.612013    234.21202    -11.90035    135.22235         -0.5          0.5      37490.4 
253000000    2090.7594   -32328.799   -20.639741    234.23975   -11.916358    135.23836         -0.5          0.5    37506.719 
253250000    2054.9398   -32356.502   -20.671205    234.27121   -11.934524    135.25653         -0.5          0.5    37525.242 
253500000     2117.391    -32311.01   -20.675815    234.27582   -11.937185    135.25919         -0.5          0.5    37527.956 
253750000    2104.8657   -32318.652   -20.645993      234.246   -11.919968    135.24197         -0.5          0.5    37510.399 
254000000     2102.122   -32300.235   -20.646611    234.24661   -11.920324    135.24233         -0.5          0.5    37510.763 
254250000    2059.7913   -32331.465   -20.622844    234.22285   -11.906603    135.22861         -0.5          0.5    37496.774 
254500000     2042.286   -32348.519   -20.555907    234.15591   -11.867957    135.18996         -0.5          0.5    37457.389 
254750000    2004.0554    -32397.87    -20.56895    234.16895   -11.875487    135.19749         -0.5          0.5    37465.062 
255000000     2114.422   -32312.025   -20.619887    234.21989   -11.904895     135.2269         -0.5          0.5    37495.034 
255250000    2046.7198   -32361.807   -20.692982    234.29299   -11.947097     135.2691         -0.5          0.5    37538.064 
255500000    2100.7568   -32335.852   -20.663595     234.2636    -11.93013    135.25213         -0.5          0.5    37520.761 
255750000    2049.5991   -32391.576   -20.508288    234.10829   -11.840464    135.16247         -0.5          0.5    37429.383 
256000000    2036.5658   -32402.176   -20.463729    234.06373   -11.814738    135.13674         -0.5          0.5    37403.187 
256250000    2009.9387   -32414.102   -20.645996      234.246    -11.91997    135.24197         -0.5          0.5    37510.401 
256500000    2036.4342   -32385.634   -20.791951    234.39196   -12.004237    135.32624         -0.5          0.5    37596.367 
256750000    1970.5961   -32430.954   -20.699313    234.29932   -11.950752    135.27275         -0.5          0.5    37541.793 
257000000    2042.7798   -32391.947   -20.404922    234.00493   -11.780785    135.10279         -0.5          0.5    37368.628 
257250000    1961.9514   -32448.884    -20.36775    233.96775   -11.759324    135.08133         -0.5          0.5    37346.791 
257500000    2047.0123    -32389.28   -20.738909    234.33891   -11.973613    135.29562         -0.5          0.5    37565.114 
257750000    1964.3287   -32427.073   -20.960062    234.56007   -12.101296     135.4233         -0.5          0.5    37695.503 
258000000    1963.3116    -32443.28   -20.649283    234.24929   -11.921867    135.24387         -0.5          0.5    37512.336 
258250000    1983.6676   -32433.637   -20.290384    233.89039   -11.714657    135.03666         -0.5          0.5    37301.363 
258500000    1959.4113   -32426.784   -20.450224    234.05023   -11.806941    135.12894         -0.5          0.5    37395.249 
258750000    1989.3131   -32443.359    -20.82262    234.42262   -12.021943    135.34395         -0.5          0.5    37614.442 
259000000    1968.8168   -32472.276    -20.83742    234.43742   -12.030488    135.35249         -0.5          0.5    37623.167 
259250000    1967.6981   -32465.466    -20.52866    234.12866   -11.852226    135.17423         -0.5          0.5    37441.363 
259500000    1982.2873   -32475.787    -20.33543    233.93543   -11.740664    135.06267         -0.5          0.5     37327.81 
259750000    1971.0378   -32473.926   -20.499454    234.09946   -11.835364    135.15737         -0.5          0.5    37424.189 
260000000    1939.8975   -32471.036   -20.711922    234.31193   -11.958032    135.28003         -0.5          0.5    37549.218 
260250000    2003.5725   -32454.012   -20.678156    234.27816   -11.938537    135.26054         -0.5          0.5    37529.335 
260500000    1967.9505   -32453.714   -20.485851    234.08586    -11.82751    135.14951         -0.5          0.5    37416.192 
260750000    1936.1934   -32509.781   -20.415633    234.01564   -11.786969    135.10897         -0.5          0.5    37374.921 
261000000    1927.9032   -32530.693   -20.581558    234.18156   -11.882766    135.20477         -0.5          0.5    37472.479 
261250000    1899.9525   -32515.804   -20.718483    234.31849    -11.96182    135.28382         -0.5          0.5    37553.083 
261500000    1950.2844   -32488.266   -20.587584    234.18759   -11.886246    135.20825         -0.5          0.5    37476.025 
261750000    1920.3152   -32513.855   -20.392325    233.99233   -11.773513    135.09552         -0.5          0.5    37361.227 
262000000    1891.4371   -32546.908   -20.388048    233.98805   -11.771043    135.09305         -0.5          0.5    37358.714 
262250000    1926.3922   -32536.795    -20.57515    234.17515   -11.879067    135.20107         -0.5          0.5    37468.709 
262500000    1878.9189   -32546.392   -20.700059    234.30006   -11.951183    135.27319         -0.5          0.5    37542.232 
262750000    1911.7658   -32537.313    -20.63267    234.23267   -11.912276    135.23428         -0.5          0.5    37502.557 
263000000    1942.4046   -32522.313   -20.470267    234.07027   -11.818513    135.14052         -0.5          0.5     37407.03 
263250000    1860.1978   -32608.155   -20.423895     234.0239   -11.791739    135.11374         -0.5          0.5    37379.776 
263500000    1898.2504   -32554.176   -20.535217    234.13522   -11.856011    135.17801         -0.5          0.5    37445.219 
263750000     1873.257   -32590.019    -20.62807    234.22807    -11.90962    135.23162         -0.5          0.5     37499.85 
264000000    1886.1494   -32543.551   -20.571686    234.17169   -11.877067    135.19907         -0.5          0.5    37466.672 
264250000    1892.1052   -32568.294   -20.391463    233.99147   -11.773015    135.09502         -0.5          0.5    37360.721 
264500000    1835.7554   -32604.088   -20.310298     233.9103   -11.726155    135.04816         -0.5          0.5    37313.054 
264750000     1827.887   -32621.871   -20.492255    234.09226   -11.831207    135.15321         -0.5          0.5    37419.956 
265000000    1846.2638   -32597.241   -20.630933    234.23094   -11.911273    135.23328         -0.5          0.5    37501.535 
265250000    1810.6422   -32597.274   -20.523777    234.12378   -11.849406    135.17141         -0.5          0.5    37438.492 
265500000    1850.3708   -32597.812   -20.362086    233.96209   -11.756054    135.07806         -0.5          0.5    37343.464 
265750000    1850.6545   -32594.996   -20.376007    233.97601   -11.764092    135.08609         -0.5          0.5    37351.641 
266000000    1818.0236   -32618.235   -20.509156    234.10916   -11.840965    135.16297         -0.5          0.5    37429.894 
266250000    1859.5321   -32599.904    -20.54249    234.14249    -11.86021    135.18221         -0.5          0.5    37449.497 
266500000    1819.2387    -32642.57   -20.421818    234.02182    -11.79054    135.11254         -0.5          0.5    37378.555 
266750000    1790.2686   -32649.691   -20.341543    233.94155   -11.744194     135.0662         -0.5          0.5      37331.4 
267000000    1829.5679   -32622.505   -20.456367    234.05637   -11.810487    135.13249         -0.5          0.5     37398.86 
267250000    1787.6327   -32654.055   -20.566827    234.16683   -11.874262    135.19626         -0.5          0.5    37463.813 
267500000     1775.585   -32652.811   -20.491093     234.0911   -11.830536    135.15254         -0.5          0.5    37419.273 
267750000    1827.0161   -32634.839   -20.326293     233.9263   -11.735389    135.05739         -0.5          0.5    37322.445 
268000000    1792.7823   -32683.803    -20.28566    233.88566    -11.71193    135.03393         -0.5          0.5     37298.59 
268250000    1795.1142   -32644.541   -20.432004    234.03201   -11.796421    135.11842         -0.5          0.5    37384.541 
268500000    1776.7434   -32694.507   -20.525983    234.12599    -11.85068    135.17268         -0.5          0.5    37439.789 
268750000    1781.2694   -32672.099   -20.427367    234.02737   -11.793744    135.11575         -0.5          0.5    37381.816 
269000000    1757.2321   -32692.245   -20.286278    233.88628   -11.712286    135.03429         -0.5          0.5    37298.953 
269250000    1740.2291   -32718.761   -20.312756    233.91276   -11.727573    135.04958         -0.5          0.5    37314.496 
269500000    1756.5397   -32721.585   -20.449919    234.04992   -11.806765    135.12877         -0.5          0.5     37395.07 
269750000    1723.3875   -32724.462   -20.482734    234.08274    -11.82571    135.14771         -0.5          0.5    37414.359 
270000000     1723.447   -32702.331   -20.373647    233.97365   -11.762729    135.08473         -0.5          0.5    37350.255 
270250000    1732.0982   -32740.548    -20.29599    233.89599   -11.717893     135.0399         -0.5          0.5    37304.654 
270500000    1783.0226   -32710.729   -20.343463    233.94347   -11.745302    135.06731         -0.5          0.5    37332.527 
270750000    1775.6525    -32704.73   -20.418868    234.01887   -11.788837    135.11084         -0.5          0.5    37376.822 
271000000    1736.0519   -32739.548   -20.396324    233.99633   -11.775821    135.09782         -0.5          0.5    37363.576 
271250000    1744.7884   -32725.322   -20.308097     233.9081   -11.724884    135.04689         -0.5          0.5    37311.762 
271500000    1744.3696   -32757.268    -20.27265    233.87265   -11.704418    135.02642         -0.5          0.5    37290.954 
271750000    1701.3764   -32761.434   -20.308919    233.90892   -11.725358    135.04736         -0.5          0.5    37312.244 
272000000    1693.2357   -32772.282   -20.365719    233.96572   -11.758151    135.08015         -0.5          0.5    37345.598 
272250000    1726.9699   -32756.943   -20.360422    233.96043   -11.755094     135.0771         -0.5          0.5    37342.487 
272500000    1722.2977   -32784.932   -20.305258    233.90526   -11.723244    135.04525         -0.5          0.5    37310.095 
272750000    1682.2398   -32787.383   -20.305288    233.90529   -11.723262    135.04526         -0.5          0.5    37310.113 
273000000    1671.8207   -32774.147   -20.361655    233.96166   -11.755805    135.07781         -0.5          0.5    37343.211 
273250000    1709.0613   -32780.627   -20.365636    233.96564   -11.758104    135.08011         -0.5          0.5    37345.549 
273500000    1699.5626    -32789.25   -20.271128    233.87113   -11.703539    135.02554         -0.5          0.5     37290.06 
273750000    1655.4517   -32808.582   -20.223268    233.82327   -11.675907    134.99791         -0.5          0.5    37261.976 
274000000    1666.8805   -32810.031   -20.314602    233.91461   -11.728639    135.05064         -0.5          0.5    37315.581 
274250000    1637.9741   -32833.265   -20.391099     233.9911   -11.772805    135.09481         -0.5          0.5    37360.507 
274500000      1648.38   -32824.336    -20.30816    233.90816    -11.72492    135.04692         -0.5          0.5    37311.798 
274750000    1648.8853   -32831.307   -20.162616    233.76262    -11.64089    134.96289         -0.5          0.5      37226.4 
275000000    1645.7214   -32821.711   -20.213998      233.814   -11.670555    134.99256         -0.5          0.5    37256.537 
275250000    1655.4695   -32821.105   -20.404354    234.00436   -11.780458    135.10246         -0.5          0.5    37368.294 
275500000    1608.8077   -32860.322   -20.417696     234.0177    -11.78816    135.11016         -0.5          0.5    37376.133 
275750000    1618.6527   -32867.365   -20.200001        233.8   -11.662474    134.98448         -0.5          0.5    37248.326 
276000000     1622.459   -32866.317   -20.047757    233.64776   -11.574576    134.89658         -0.5          0.5    37159.076 
276250000    1611.9006   -32855.567   -20.206622    233.80663   -11.666297     134.9883         -0.5          0.5    37252.211 
276500000    1611.6196   -32864.306   -20.458172    234.05818   -11.811529    135.13353         -0.5          0.5    37399.921 
276750000    1608.7631    -32876.19   -20.387728    233.98773   -11.770858    135.09286         -0.5          0.5    37358.526 
277000000    1622.1063    -32847.06   -20.091371    233.69137   -11.599757    134.92176         -0.5          0.5    37184.633 
277250000    1632.6597     -32866.8   -20.021418    233.62142    -11.55937    134.88137         -0.5          0.5    37143.646 
277500000    1581.7526   -32895.929   -20.272165    233.87217   -11.704138    135.02614         -0.5          0.5    37290.669 
277750000    1613.3115   -32876.335   -20.435681    234.03568   -11.798544    135.12055         -0.5          0.5    37386.702 
278000000    1621.8736   -32899.158   -20.269337    233.86934   -11.702505    135.02451         -0.5          0.5    37289.009 
278250000    1521.8537   -32949.349   -20.048415    233.64842   -11.574956    134.89696         -0.5          0.5    37159.461 
278500000    1541.8669   -32937.944     -20.1261     233.7261   -11.619807    134.94181         -0.5          0.5     37204.99 
278750000    1571.0195   -32911.232   -20.359474    233.95948   -11.754546    135.07655         -0.5          0.5    37341.931 
279000000    1567.0766   -32922.325   -20.330577    233.93058   -11.737863    135.05987         -0.5          0.5    37324.961 
279250000    1571.7767   -32917.656   -20.099325    233.69933   -11.604349    134.92635         -0.5          0.5    37189.295 
279500000    1553.6907   -32942.891   -20.043016    233.64302   -11.571839    134.89384         -0.5          0.5    37156.298 
279750000    1567.8163   -32934.419   -20.240779    233.84078   -11.686018    135.00802         -0.5          0.5    37272.251 
280000000    1532.5258   -32959.886   -20.357049    233.95705   -11.753146    135.07515         -0.5          0.5    37340.506 
280250000    1534.1701   -32971.751   -20.219711    233.81972   -11.673854    134.99586         -0.5          0.5    37259.889 
280500000    1565.1888   -32932.123   -20.043197     233.6432   -11.571943    134.89395         -0.5          0.5    37156.404 
280750000     1492.951   -32977.814   -20.086526    233.68653    -11.59696    134.91896         -0.5          0.5    37181.794 
281000000     1512.774   -32955.227   -20.244281    233.84428   -11.688039    135.01004         -0.5          0.5    37274.305 
281250000    1547.4362   -32970.259    -20.22837    233.82837   -11.678853    135.00086         -0.5          0.5    37264.969 
281500000    1532.2546   -32977.545   -20.094877    233.69488   -11.601781    134.92378         -0.5          0.5    37186.688 
281750000    1540.5121   -32962.068   -20.057484    233.65749   -11.580192     134.9022         -0.5          0.5    37164.775 
282000000    1504.2879   -32991.672   -20.148728    233.74873   -11.632872    134.95487         -0.5          0.5    37218.256 
282250000    1486.7932   -33008.307   -20.207328    233.80733   -11.666704    134.98871         -0.5          0.5    37252.624 
282500000    1503.8872    -32995.35   -20.148725    233.74873    -11.63287    134.95487         -0.5          0.5    37218.255 
282750000    1479.1202   -33007.668   -20.056261    233.65626   -11.579486    134.90149         -0.5          0.5    37164.058 
283000000    1488.0341   -33011.115    -20.06618    233.66618   -11.585213    134.90722         -0.5          0.5     37169.87 
283250000    1482.3124   -33014.672   -20.154148    233.75415   -11.636001      134.958         -0.5          0.5    37221.435 
283500000    1470.0954   -33034.089   -20.164755    233.76476   -11.642125    134.96413         -0.5          0.5    37227.655 
283750000    1451.6154   -33061.874   -20.070116    233.67012   -11.587485    134.90949         -0.5          0.5    37172.176 
284000000    1451.4953   -33054.202   -20.013443    233.61345   -11.554765    134.87677         -0.5          0.5    37138.975 
284250000     1456.536   -33055.364    -20.07612    233.67612   -11.590951    134.91295         -0.5          0.5    37175.695 
284500000    1491.5273   -33041.011   -20.142456    233.74246   -11.629251    134.95125         -0.5          0.5    37214.579 
284750000    1475.2977   -33033.254   -20.097422    233.69743   -11.603251    134.92525         -0.5          0.5     37188.18 
285000000    1446.2728   -33068.002   -20.040955    233.64096   -11.570649    134.89265         -0.5          0.5    37155.091 
285250000      1463.91   -33035.477   -20.094063    233.69407   -11.601311    134.92331         -0.5          0.5    37186.211 
285500000    1447.0775   -33079.076   -20.172025    233.77203   -11.646323    134.96833         -0.5          0.5    37231.918 
285750000    1451.2921   -33066.282   -20.146337    233.74634   -11.631491    134.95349         -0.5          0.5    37216.855 
286000000    1413.6473   -33081.515   -20.020916    233.62092    -11.55908    134.88108         -0.5          0.5    37143.352 
286250000    1414.2003   -33113.912   -19.978512    233.57852   -11.534598     134.8566         -0.5          0.5    37118.517 
286500000    1411.7739   -33111.184   -20.1068