6400
Atoms. Timestep: 32400000
1 66.0832 56.5245 0
1 53.2337 -12.0644 0
1 -6.81999 45.9884 0
1 62.1633 59.5018 0
1 29.5848 -0.154427 0
1 74.4731 62.5513 0
1 12.6512 112.829 0
1 -29.776 33.8459 0
1 47.2006 80.2049 0
1 51.71 -7.11643 0
1 223.001 64.7355 0
1 235.776 -16.5813 0
1 23.7951 100.358 0
1 141.068 41.773 0
1 87.7426 106.38 0
1 159.234 121.478 0
1 107.41 21.2404 0
1 106.229 11.1773 0
1 159.199 34.8015 0
1 95.6962 10.2355 0
1 93.5312 27.0006 0
1 123.16 -4.26556 0
1 166.803 44.2217 0
1 195.497 -11.2279 0
1 113.154 84.8753 0
1 145.386 72.9174 0
1 46.6092 51.9759 0
1 30.032 4.87003 0
1 234.492 25.4905 0
1 37.4797 115.169 0
1 2.48895 66.2267 0
1 200.23 112.25 0
1 -16.9755 90.1294 0
1 99.7291 -14.8134 0
1 114.663 94.0189 0
1 49.7278 14.5029 0
1 21.9649 140.081 0
1 33.0917 122.255 0
1 -5.81318 108.102 0
1 111.577 12.8949 0
1 116.165 4.07099 0
1 173.931 42.6421 0
1 204.141 5.13012 0
1 39.9647 83.184 0
1 58.875 103.98 0
1 52.1089 -16.3319 0
1 73.966 17.3486 0
1 77.1833 -14.0063 0
1 26.5334 19.4878 0
1 -26.8841 47.3604 0
1 95.8837 140.17 0
1 141.404 72.5429 0
1 184.958 93.3321 0
1 62.3138 -2.57496 0
1 96.2998 41.0414 0
1 100.564 107.338 0
1 74.9177 125.604 0
1 239.671 34.6037 0
1 223.566 14.1419 0
1 114.846 54.8885 0
1 140.319 124.512 0
1 146.719 86.2056 0
1 -11.3475 -15.8765 0
1 225.804 6.50877 0
1 -21.3281 24.0592 0
1 140.225 58.7961 0
1 130.727 109.105 0
1 122.512 90.7264 0
1 61.2806 70.4721 0
1 121.24 123.118 0
1 135.14 98.3136 0
1 128.906 115.77 0
1 124.246 37.0755 0
1 211.381 67.7129 0
1 244.034 105.314 0
1 102.347 56.4387 0
1 19.166 137.903 0
1 66.8738 1.66067 0
1 122.02 92.8938 0
1 28.2895 114.128 0
1 -9.41766 26.1049 0
1 89.4371 0.910317 0
1 234.029 69.9976 0
1 132.333 21.0273 0
1 170.694 56.4074 0
1 234.77 -14.4303 0
1 23.7809 109.998 0
1 58.476 -17.5023 0
1 27.3152 6.67707 0
1 76.3869 108.036 0
1 103.48 12.8185 0
1 77.6746 123.729 0
1 89.4842 80.4098 0
1 115.518 -6.76598 0
1 -2.94073 59.5577 0
1 75.8028 55.4647 0
1 -1.69931 -6.6156 0
1 107.524 102.987 0
1 167.437 138.794 0
1 68.8494 88.6419 0
1 216.344 92.9717 0
1 222.886 71.4516 0
1 145.647 45.3934 0
1 32.4323 36.0647 0
1 -8.25511 83.3922 0
1 113.791 50.0818 0
1 51.8709 119.995 0
1 34.6105 119.493 0
1 96.0963 7.76772 0
1 135.037 27.6869 0
1 1.6031 61.7148 0
1 170.239 117.294 0
1 204.349 14.922 0
1 24.1335 76.7516 0
1 33.9443 -7.53993 0
1 131.867 128.729 0
1 149.251 59.0809 0
1 196.451 20.5265 0
1 22.0261 102.258 0
1 24.4697 129.784 0
1 -1.43185 125.211 0
1 -4.36478 16.2467 0
1 113.262 123.454 0
1 217.376 10.3192 0
1 20.5682 11.2365 0
1 69.5855 74.7747 0
1 38.4953 49.7628 0
1 199.678 6.42235 0
1 13.1178 20.0518 0
1 51.3543 136.414 0
1 90.7917 31.6397 0
1 182.437 26.9966 0
1 51.7219 115.701 0
1 41.9261 65.0363 0
1 51.2199 90.1804 0
1 133.979 15.619 0
1 52.5656 13.8122 0
1 50.7143 -5.19355 0
1 236.317 40.4323 0
1 130.668 114.101 0
1 94.0665 92.8144 0
1 78.5313 73.2277 0
1 108.733 134.504 0
1 227.326 24.4312 0
1 137.032 47.7586 0
1 90.3169 13.3081 0
1 115.919 130.35 0
1 150.985 21.6867 0
1 134.812 66.0232 0
1 51.7386 67.0055 0
1 99.1697 -4.23114 0
1 76.8345 41.3292 0
1 -28.7073 27.7267 0
1 88.5137 -12.9203 0
1 98.1583 112.099 0
1 -26.4569 90.7385 0
1 -3.16233 52.5545 0
1 229.428 70.0709 0
1 207.573 -7.16307 0
1 206.562 71.1868 0
1 -21.2328 73.9319 0
1 12.1233 82.1259 0
1 38.3949 0.68283 0
1 45.171 119.986 0
1 143.599 -4.64598 0
1 136.473 116.753 0
1 233.536 -9.84594 0
1 8.28117 51.9143 0
1 21.4281 23.639 0
1 88.5648 61.331 0
1 -6.34381 140.493 0
1 122.518 116.767 0
1 66.5159 -11.3138 0
1 26.7636 132.778 0
1 141.946 -15.3324 0
1 130.232 42.2752 0
1 93.0065 125.501 0
1 34.7444 91.0049 0
1 95.1146 124.665 0
1 20.1944 122.666 0
1 173.183 118.957 0
1 159.972 113.93 0
1 110.962 8.82536 0
1 73.7073 24.4509 0
1 81.5368 139.279 0
1 16.4983 61.6271 0
1 43.8179 49.2094 0
1 167.304 70.6045 0
1 -8.85812 104.97 0
1 149.928 25.0542 0
1 92.8746 79.1386 0
1 105.632 97.3451 0
1 112.524 109.694 0
1 -16.0659 23.4628 0
1 105.255 105.884 0
1 -1.89407 -3.32082 0
1 193.201 83.4411 0
1 159.798 1.18638 0
1 206.81 -3.95535 0
1 61.9573 110.197 0
1 41.1247 115.281 0
1 156.473 55.968 0
1 47.4199 86.4732 0
1 21.4041 62.4785 0
1 241.253 67.0069 0
1 231.163 118.579 0
1 -9.30119 45.8622 0
1 204.516 68.7081 0
1 44.4412 126.339 0
1 41.8905 55.4795 0
1 52.0025 104.698 0
1 82.5272 122.306 0
1 161.764 -15.0137 0
1 202.53 24.5594 0
1 148.093 38.4585 0
1 36.7463 12.6252 0
1 73.8524 111.303 0
1 98.1461 12.4148 0
1 219.319 74.4288 0
1 121.812 113.435 0
1 124.685 -10.6435 0
1 64.6752 51.7647 0
1 160.98 98.0126 0
1 84.8382 36.5464 0
1 170.915 73.6437 0
1 237.718 -17.0567 0
1 210.939 75.9102 0
1 108.559 17.7513 0
1 244.106 80.3219 0
1 91.7489 81.2607 0
1 107.256 -8.78583 0
1 115.632 104.296 0
1 98.7018 50.9681 0
1 -5.56838 0.961552 0
1 60.3707 105.755 0
1 159.873 47.15 0
1 -3.21233 3.46746 0
1 148.532 98.1572 0
1 189.148 18.2911 0
1 35.9097 15.9194 0
1 25.8789 68.3366 0
1 -12.059 32.7167 0
1 -9.92691 31.8834 0
1 -24.9611 127.763 0
1 159.856 111.795 0
1 16.5896 82.7482 0
1 85.0979 13.3469 0
1 87.3639 99.4801 0
1 3.14595 72.7062 0
1 38.0293 18.2978 0
1 95.2905 137.157 0
1 163.815 79.7936 0
1 93.8071 32.9946 0
1 58.2318 129.848 0
1 93.3613 29.331 0
1 15.6486 -4.36904 0
1 160.755 109.445 0
1 68.8113 72.9797 0
1 5.39124 39.0477 0
1 145.768 -16.9973 0
1 138.557 70.2696 0
1 242.01 115.941 0
1 63.7084 -5.83971 0
1 118.425 4.27175 0
1 65.45 38.3733 0
1 119.932 34.6532 0
1 84.0881 97.6248 0
1 -9.39062 95.1133 0
1 77.986 14.3355 0
1 39.0642 41.9852 0
1 82.9508 13.1665 0
1 133.555 95.2776 0
1 -1.1835 -8.85397 0
1 136.912 78.1142 0
1 5.04799 14.3016 0
1 154.132 6.24645 0
1 116.238 85.6546 0
1 54.4739 88.2497 0
1 176.352 115.539 0
1 122.847 61.0418 0
1 94.1901 37.6651 0
1 103.083 -14.433 0
1 14.8451 112.203 0
1 14.3017 127.215 0
1 61.483 86.7987 0
1 56.0592 84.0056 0
1 64.3799 110.221 0
1 41.7087 93.977 0
1 86.0466 108.277 0
1 80.9392 85.1417 0
1 201.424 123.325 0
1 -5.21193 -16.0095 0
1 140.938 113.156 0
1 53.7414 4.16612 0
1 172.771 62.1808 0
1 68.9941 64.0979 0
1 183.411 -4.86875 0
1 217.675 8.0579 0
1 103.623 53.1537 0
1 28.2527 17.9541 0
1 94.8115 3.29129 0
1 232.865 91.9102 0
1 45.2558 62.3856 0
1 102.992 106.298 0
1 66.0463 62.1554 0
1 130.994 -1.58391 0
1 217.261 77.9304 0
1 -27.3581 114.945 0
1 43.7828 -0.124727 0
1 155.214 130.849 0
1 -14.9997 88.0218 0
1 -2.52932 92.807 0
1 151.544 74.3843 0
1 33.3153 4.59743 0
1 194.894 -8.90302 0
1 181.249 118.394 0
1 99.0429 33.2233 0
1 133.999 76.95 0
1 19.1032 27.3968 0
1 -26.9358 64.442 0
1 145.848 39.042 0
1 39.7738 45.5792 0
1 61.8764 7.26694 0
1 -10.3839 133.532 0
1 187.231 0.551318 0
1 168.74 105.378 0
1 75.7208 58.584 0
1 -14.7082 94.2126 0
1 80.9797 98.2571 0
1 182.294 82.5666 0
1 142.614 19.2013 0
1 49.9969 93.4395 0
1 68.6671 98.494 0
1 62.9669 123.037 0
1 196.474 6.42895 0
1 -2.12648 111.141 0
1 57.3812 -6.89336 0
1 135.454 10.6019 0
1 227.616 123.345 0
1 135.27 -0.629661 0
1 44.8425 2.91889 0
1 208.066 15.4206 0
1 34.0685 86.9515 0
1 134.136 48.9847 0
1 122.664 105.764 0
1 171.605 30.6809 0
1 31.9275 78.0334 0
1 157.112 75.6833 0
1 32.3493 70.4792 0
1 84.5231 -13.9448 0
1 200.982 132.696 0
1 159.975 65.0709 0
1 19.9259 111.572 0
1 199.079 134.303 0
1 186.366 5.94294 0
1 109.16 23.7309 0
1 20.1112 8.03407 0
1 -26.5085 34.2255 0
1 171.448 64.7647 0
1 10.6059 118.347 0
1 100.099 75.0521 0
1 142.202 15.9858 0
1 110.909 138.392 0
1 -18.5997 18.1625 0
1 19.635 64.2043 0
1 19.4649 70.029 0
1 225.125 105.01 0
1 -18.9559 13.1894 0
1 49.9187 134.747 0
1 62.9844 116.867 0
1 113.775 46.7307 0
1 157.052 66.8336 0
1 5.58014 126.581 0
1 14.4185 40.1117 0
1 63.0541 12.1315 0
1 54.2894 93.9882 0
1 65.1625 117.958 0
1 80.1541 81.9474 0
1 77.4351 12.1944 0
1 137.144 68.4287 0
1 120.118 130.52 0
1 77.1711 50.9093 0
1 143.71 136.565 0
1 201.841 19.7101 0
1 -23.8383 13.548 0
1 165.491 109.871 0
1 4.89831 139.574 0
1 186.145 17.2581 0
1 58.7367 54.8625 0
1 137.759 41.211 0
1 68.2241 62.0103 0
1 96.088 90.5098 0
1 219.469 3.6859 0
1 136.446 20.4981 0
1 175.485 5.9837 0
1 156.555 62.4636 0
1 109.43 11.491 0
1 200.379 -12.2704 0
1 38.6204 7.0878 0
1 52.7696 23.8387 0
1 40.5859 -8.61163 0
1 74.3364 9.48215 0
1 128.45 81.524 0
1 56.1322 39.6502 0
1 31.6577 115.852 0
1 62.2173 128.785 0
1 38.2396 61.2175 0
1 128.177 129.985 0
1 -28.8672 31.4656 0
1 226.778 11.9018 0
1 104.949 80.7595 0
1 106.842 86.3989 0
1 72.2631 48.5992 0
1 106.54 60.6273 0
1 114.232 74.9525 0
1 239.091 41.7539 0
1 105.029 1.89889 0
1 137.433 -10.7045 0
1 227.998 0.799581 0
1 163.729 -2.3316 0
1 70.3276 37.3495 0
1 98.0533 23.7485 0
1 52.6881 86.9853 0
1 139.864 24.5947 0
1 179.892 63.3022 0
1 64.3798 128.384 0
1 29.2711 68.6552 0
1 10.9014 -10.1312 0
1 193.825 122.999 0
1 -7.72868 137.645 0
1 98.5577 108.826 0
1 50.1251 112.746 0
1 225.046 77.7789 0
1 -0.866871 47.1233 0
1 -15.7187 -17.1563 0
1 -12.1283 65.3888 0
1 21.3561 130.194 0
1 82.7817 141.276 0
1 23.8703 15.7518 0
1 228.186 47.9124 0
1 44.644 -12.6935 0
1 199.603 115.52 0
1 33.1438 117.857 0
1 37.4098 102.313 0
1 -7.29716 71.8149 0
1 81.9444 19.6479 0
1 65.0955 133.865 0
1 103.909 17.2594 0
1 59.5761 7.91188 0
1 231.425 23.4113 0
1 16.0747 103.204 0
1 30.6412 28.4574 0
1 194.314 135.355 0
1 129.163 -3.99066 0
1 176.628 33.0211 0
1 149.107 74.1038 0
1 5.49967 137.06 0
1 147.86 79.5826 0
1 -2.42386 42.7678 0
1 3.69861 3.16153 0
1 44.1091 26.3742 0
1 75.0816 30.6554 0
1 67.4376 48.5435 0
1 48.8472 75.575 0
1 148.396 129.751 0
1 40.664 49.5552 0
1 88.8658 51.2805 0
1 123.597 111.93 0
1 194.95 9.2089 0
1 218.839 96.6367 0
1 231.902 44.6471 0
1 1.57748 3.83323 0
1 99.0454 135.851 0
1 46.9823 128.018 0
1 134.603 -16.4899 0
1 204.382 125.894 0
1 241.194 40.7664 0
1 137.459 -2.92353 0
1 -0.501661 9.4982 0
1 -19.7142 61.7908 0
1 217.935 44.4368 0
1 3.64108 62.9386 0
1 66.5824 87.2617 0
1 219.594 76.8579 0
1 196.9 -5.85367 0
1 121.813 22.4003 0
1 65.1819 5.61214 0
1 11.5702 115.137 0
1 78.5433 43.9323 0
1 122.422 -13.4934 0
1 66.5954 73.6435 0
1 18.6138 3.47305 0
1 40.2945 62.8046 0
1 148.18 56.8585 0
1 57.4751 2.11574 0
1 185.345 7.83686 0
1 43.9134 75.7168 0
1 140.403 82.4306 0
1 97.0224 68.1053 0
1 162.134 11.7133 0
1 115.708 96.114 0
1 37.0749 93.875 0
1 -28.9367 37.6868 0
1 132.825 79.7798 0
1 60.1566 29.0747 0
1 165.66 69.1821 0
1 149.934 115.213 0
1 -10.1774 -10.6503 0
1 128.614 90.6869 0
1 135.942 54.5884 0
1 167.673 81.7017 0
1 -14.5127 98.5941 0
1 73.9714 -11.6169 0
1 -14.0357 91.3765 0
1 161.846 -12.8753 0
1 130.606 63.2688 0
1 165.99 -14.964 0
1 53.4607 75.6885 0
1 111.839 90.9225 0
1 38.4693 127.832 0
1 10.7104 104.513 0
1 212.31 13.2062 0
1 -31.3113 37.3736 0
1 12.3217 13.6223 0
1 61.4463 134.02 0
1 13.5194 73.4387 0
1 74.7546 13.9851 0
1 38.148 27.5356 0
1 -21.0228 84.2877 0
1 62.3761 139.749 0
1 237.177 -8.89437 0
1 8.47847 137.013 0
1 23.7632 -2.28863 0
1 53.5456 16.11 0
1 47.6782 82.5185 0
1 123.214 78.1779 0
1 153.17 61.2924 0
1 92.5439 6.65927 0
1 93.318 12.8963 0
1 128.9 36.4351 0
1 93.7001 54.3334 0
1 10.2744 9.52649 0
1 156.667 87.8195 0
1 162.629 84.118 0
1 130.917 87.0502 0
1 146.877 59.2839 0
1 -12.2085 -11.0047 0
1 183.026 -0.457269 0
1 160.321 3.53733 0
1 -5.52349 -3.68274 0
1 243.069 41.8363 0
1 109.032 72.5374 0
1 7.25827 79.503 0
1 13.7378 6.21486 0
1 108.697 104.941 0
1 127.443 50.5556 0
1 155.809 85.6603 0
1 188.858 107.265 0
1 121.363 25.6164 0
1 64.0541 35.1796 0
1 166.484 -17.1687 0
1 32.9235 74.4989 0
1 13.2905 67.562 0
1 -4.43623 75.0699 0
1 7.29157 25.7785 0
1 186.432 22.1501 0
1 14.0094 -9.66404 0
1 12.3435 23.6348 0
1 -15.7633 47.0571 0
1 23.0962 112.226 0
1 0.450803 27.732 0
1 -10.4203 42.9578 0
1 17.0235 49.4517 0
1 64.4903 20.4633 0
1 116.258 23.2378 0
1 98.1082 15.8123 0
1 60.4554 111.741 0
1 41.1298 36.8342 0
1 3.18384 124.654 0
1 56.2561 124.366 0
1 1.24192 109.116 0
1 188.446 5.34536 0
1 210.213 91.7646 0
1 17.9408 76.9617 0
1 125.476 52.7929 0
1 184.693 14.0992 0
1 87.9516 59.0548 0
1 36.4479 30.9545 0
1 33.4286 8.3104 0
1 10.0202 82.1368 0
1 162.977 87.3933 0
1 196.126 127.295 0
1 55.6974 54.9237 0
1 42.9357 62.4436 0
1 71.7563 77.0496 0
1 11.4435 25.8886 0
1 84.7676 100.444 0
1 97.9561 20.5933 0
1 187.026 97.5009 0
1 190.318 130.28 0
1 14.5694 106.128 0
1 9.12523 -11.251 0
1 51.1703 69.448 0
1 23.1133 90.6236 0
1 39.3739 67.6486 0
1 70.9459 91.5462 0
1 61.7947 34.1689 0
1 -8.03482 85.6131 0
1 55.6144 14.7219 0
1 145.178 77.6591 0
1 127.341 141.142 0
1 101.202 99.7597 0
1 157.166 -16.5239 0
1 -25.6691 73.1156 0
1 29.1969 132.048 0
1 15.4587 95.8433 0
1 171.272 128.082 0
1 190.637 120.274 0
1 237.723 24.1091 0
1 84.9011 130.115 0
1 49.6662 108.846 0
1 60.7321 127.148 0
1 5.6835 70.7031 0
1 38.7115 30.1089 0
1 152.916 108.898 0
1 51.2193 96.4681 0
1 136.835 3.34263 0
1 112.439 128.751 0
1 152.53 41.3754 0
1 191.946 96.5342 0
1 129.927 -7.70505 0
1 51.0454 8.81615 0
1 61.3083 -16.1326 0
1 101.749 109.309 0
1 3.81112 80.0756 0
1 -5.00919 56.0245 0
1 5.55688 28.3628 0
1 194.056 120.687 0
1 207.07 61.2811 0
1 20.2497 119.596 0
1 79.3614 132.965 0
1 -9.89417 21.2485 0
1 80.2578 50.0247 0
1 6.95823 114.758 0
1 10.9136 127.628 0
1 193.215 133.451 0
1 157.685 116.783 0
1 50.558 127.589 0
1 56.0117 126.785 0
1 126.557 11.5646 0
1 14.7079 36.9276 0
1 64.8196 125.817 0
1 146.124 129.719 0
1 172.852 114.267 0
1 93.8813 89.7743 0
1 130.71 91.5293 0
1 151.187 80.6454 0
1 196.53 24.6073 0
1 69.8823 16.6746 0
1 57.9483 117.835 0
1 65.7831 -14.7561 0
1 35.3178 59.9824 0
1 22.6207 126.852 0
1 68.4784 27.9524 0
1 11.9949 -5.57237 0
1 192.866 127.076 0
1 25.3351 27.3046 0
1 61.7386 24.1983 0
1 169.06 91.684 0
1 218.707 0.50577 0
1 134.194 83.5088 0
1 113.957 80.3358 0
1 115.197 82.4617 0
1 155.781 109.709 0
1 150.087 46.3161 0
1 191.669 78.2597 0
1 189.118 32.9406 0
1 64.9444 7.78902 0
1 -10.7997 35.6074 0
1 -3.78358 77.7211 0
1 43.4016 13.3178 0
1 -13.7541 76.9791 0
1 219.388 11.1296 0
1 59.2098 78.4706 0
1 196.176 34.12 0
1 145.137 -1.16521 0
1 34.6348 -14.1605 0
1 65.2589 95.3231 0
1 68.9836 125.262 0
1 63.3327 106.812 0
1 111.065 74.7737 0
1 234.57 111.022 0
1 90.09 11.1995 0
1 55.0357 52.3095 0
1 146.459 54.684 0
1 47.9191 34.149 0
1 54.3368 64.9367 0
1 75.0854 128.192 0
1 116.632 78.5657 0
1 125.297 88.9733 0
1 172.17 22.9065 0
1 225.197 31.2427 0
1 88.8821 28.9255 0
1 106.618 91.8329 0
1 90.4068 126.395 0
1 22.83 25.6107 0
1 118.461 49.4921 0
1 118.32 129.413 0
1 126.556 115.583 0
1 -21.8133 78.6869 0
1 149.743 71.5454 0
1 -22.7706 69.2466 0
1 62.4499 76.4541 0
1 144.036 99.6321 0
1 142.008 29.1453 0
1 232.086 30.6651 0
1 -3.24488 87.7365 0
1 210.19 124.704 0
1 51.9515 123.844 0
1 92.5935 47.0158 0
1 230.674 8.48669 0
1 171.186 67.9611 0
1 141.961 -6.5676 0
1 221.87 25.6873 0
1 26.5862 38.2872 0
1 43.0774 78.1867 0
1 95.3706 21.4421 0
1 37.0088 -16.2364 0
1 197.427 11.595 0
1 10.2395 122.464 0
1 198.643 56.6955 0
1 37.5152 98.7662 0
1 11.753 11.3933 0
1 71.8759 -10.1915 0
1 238.732 68.8205 0
1 126.819 14.2008 0
1 118.222 16.5707 0
1 163.966 67.2235 0
1 235.379 0.62658 0
1 39.3712 107.829 0
1 148.292 36.3773 0
1 146.406 122.51 0
1 21.2555 47.4673 0
1 123.472 0.169069 0
1 138.544 130.303 0
1 79.34 107.411 0
1 75.9542 60.8639 0
1 90.3305 121.305 0
1 -16.1802 37.6609 0
1 146.856 82.6818 0
1 27.9003 -13.1048 0
1 23.5972 46.3772 0
1 148.498 40.9577 0
1 207.402 3.92795 0
1 177.276 21.0745 0
1 55.6856 86.1298 0
1 220.072 56.671 0
1 -5.50072 4.3617 0
1 37.1551 85.4493 0
1 -24.5231 80.3058 0
1 -3.60516 112.637 0
1 187.963 121.819 0
1 82.4039 -10.4593 0
1 62.295 82.3191 0
1 31.5801 11.0778 0
1 194.047 36.7679 0
1 55.4406 97.3409 0
1 -2.49034 84.431 0
1 56.1381 77.7037 0
1 157.725 28.6985 0
1 243.017 21.2009 0
1 46.9505 22.1248 0
1 144.71 92.6804 0
1 211.089 88.6282 0
1 233.476 20.9085 0
1 117.068 44.2111 0
1 203.733 -2.67533 0
1 -7.08461 69.8366 0
1 35.3955 38.0821 0
1 193.601 -3.78234 0
1 115.83 133.118 0
1 65.9874 54.4418 0
1 147.455 -11.7379 0
1 -18.8555 79.2062 0
1 211.04 122.459 0
1 40.0786 13.2878 0
1 125.452 71.0837 0
1 133.207 9.52422 0
1 143.105 43.2777 0
1 -28.2205 41.8546 0
1 221.407 31.4303 0
1 -29.0319 63.2658 0
1 64.9087 2.27551 0
1 228.327 81.3533 0
1 59.6148 116.232 0
1 79.017 61.0336 0
1 232.224 37.3684 0
1 14.6981 130.453 0
1 70.2485 104.493 0
1 -5.57869 85.6451 0
1 -10.9644 105.937 0
1 169.444 -9.94954 0
1 160.028 36.8073 0
1 8.27728 19.9921 0
1 33.732 65.997 0
1 59.5881 123.403 0
1 234.361 -5.79035 0
1 58.9341 108.284 0
1 142.429 0.975969 0
1 63.3618 93.639 0
1 18.4501 -1.58127 0
1 93.1336 132.344 0
1 66.2161 44.3044 0
1 184.712 11.0905 0
1 63.3183 96.7082 0
1 102.808 73.3263 0
1 46.6045 77.205 0
1 149.14 77.442 0
1 118.366 32.6827 0
1 -17.5756 81.4687 0
1 -5.21959 -8.79718 0
1 1.56837 13.5868 0
1 165.321 117.293 0
1 121.477 19.8755 0
1 213.044 31.6717 0
1 37.6965 -10.6363 0
1 174.334 76.5076 0
1 161.038 127.095 0
1 1.85492 137.26 0
1 15.8947 119.045 0
1 183.294 62.3226 0
1 60.5291 12.0976 0
1 182.054 102.766 0
1 238.667 30.6191 0
1 -18.5605 26.1698 0
1 236.899 77.6808 0
1 228.149 77.7769 0
1 187.69 9.3777 0
1 146.823 18.1189 0
1 87.5532 116.523 0
1 -2.65413 26.6105 0
1 154.42 52.099 0
1 82.2865 31.915 0
1 -11.9445 86.8442 0
1 99.6469 125.034 0
1 167.742 88.5745 0
1 4.43699 36.4844 0
1 21.9287 37.9067 0
1 199.35 -6.38072 0
1 27.9991 15.9786 0
1 209.627 3.79494 0
1 166.175 72.137 0
1 -12.3642 52.95 0
1 60.0581 -14.4353 0
1 134.587 57.3385 0
1 106.76 19.1145 0
1 64.5211 41.2279 0
1 74.4506 5.84778 0
1 59.5444 93.3465 0
1 123.782 134.52 0
1 204.245 46.3548 0
1 173.548 32.1481 0
1 100.758 112.914 0
1 59.5273 0.159845 0
1 25.8185 48.3517 0
1 111.965 116.42 0
1 131.839 102.476 0
1 166.528 106.442 0
1 98.2684 62.7723 0
1 -7.41557 131.465 0
1 124.88 106.555 0
1 235.066 30.4058 0
1 145.409 -6.28928 0
1 90.8619 23.3907 0
1 65.1514 130.764 0
1 132.741 -10.6911 0
1 44.2002 -8.09443 0
1 27.995 105.626 0
1 181.185 13.9756 0
1 12.149 76.1498 0
1 -2.68131 64.0206 0
1 139.8 1.14099 0
1 6.08431 41.1463 0
1 85.5951 63.1462 0
1 214.492 5.07237 0
1 130.996 37.4968 0
1 42.8341 -2.49415 0
1 72.1687 38.9263 0
1 128.509 3.44256 0
1 171.96 -9.50902 0
1 35.9477 24.904 0
1 227.386 -1.45231 0
1 77.5181 22.8828 0
1 102.269 -5.31024 0
1 77.7191 56.7835 0
1 169.358 48.3499 0
1 103.997 -3.4962 0
1 31.5726 112.455 0
1 3.31298 55.2671 0
1 77.3093 63.4945 0
1 60.0673 17.1348 0
1 22.3055 75.5734 0
1 202.697 -15.2248 0
1 90.8994 59.4325 0
1 159.527 8.69446 0
1 97.67 71.5312 0
1 102.631 19.012 0
1 100.324 60.1484 0
1 134.073 112.757 0
1 87.1629 55.7337 0
1 193.98 7.10458 0
1 1.9913 34.2811 0
1 133.674 109.552 0
1 94.575 102.771 0
1 126.123 80.7587 0
1 35.5667 64.9618 0
1 -13.9159 45.8428 0
1 211.001 8.54154 0
1 238.254 65.3285 0
1 127.323 29.7387 0
1 47.9093 112.061 0
1 145.233 62.3503 0
1 23.8955 -7.75726 0
1 66.8694 65.0411 0
1 188.509 -3.26093 0
1 181.358 10.6626 0
1 91.9988 140.969 0
1 -10.2746 55.2104 0
1 56.9251 80.9979 0
1 46.8041 60.7246 0
1 121.963 15.3526 0
1 37.3397 66.8582 0
1 13.9545 117.915 0
1 -17.3822 57.6412 0
1 131.89 137.591 0
1 -6.7043 88.5835 0
1 88.5727 17.1121 0
1 169.605 78.9026 0
1 95.6589 50.3738 0
1 111.53 68.1053 0
1 37.0212 54.9828 0
1 139.478 133.194 0
1 233.865 51.0547 0
1 97.8951 104.229 0
1 131.61 70.6915 0
1 175.27 8.4829 0
1 8.78952 33.0129 0
1 227.453 106.763 0
1 67.4654 70.043 0
1 70.3659 127.226 0
1 127.497 137.703 0
1 76.0649 67.2708 0
1 113.266 17.9056 0
1 -14.7614 70.8195 0
1 3.16433 127.292 0
1 33.8029 130.548 0
1 44.6491 112.61 0
1 147.748 68.996 0
1 45.1356 129.429 0
1 76.8861 -0.902015 0
1 3.57492 30.1359 0
1 191.731 69.0546 0
1 41.6031 15.3976 0
1 157.498 47.3488 0
1 42.791 87.6497 0
1 27.4841 71.8682 0
1 45.2502 132.157 0
1 230.721 -2.24397 0
1 29.9661 8.26922 0
1 26.7902 24.4412 0
1 43.5675 118.052 0
1 76.3212 25.0907 0
1 70.0395 -14.8479 0
1 56.1611 48.2993 0
1 77.3247 117.272 0
1 62.5502 53.9124 0
1 157.514 0.577558 0
1 3.09202 132.617 0
1 -4.1309 24.3815 0
1 31.7882 -10.1684 0
1 158.87 67.288 0
1 45.2572 34.4179 0
1 144.216 127.095 0
1 59.6934 26.8557 0
1 166.095 92.8553 0
1 151.44 29.8047 0
1 82.3668 77.2135 0
1 121.987 34.9698 0
1 144.759 60.285 0
1 83.0257 137.115 0
1 123.282 100.024 0
1 172.55 -11.5075 0
1 126.826 126.001 0
1 204.49 123.75 0
1 128.924 134.81 0
1 -1.79876 57.4289 0
1 133.17 141.147 0
1 179.95 -4.58585 0
1 0.987632 116.601 0
1 32.4249 -16.8133 0
1 32.68 127.72 0
1 39.2072 4.94554 0
1 129.48 47.1272 0
1 213 1.34968 0
1 100.164 35.3223 0
1 242.684 34.4122 0
1 4.89807 -6.31573 0
1 27.6407 138.164 0
1 88.4272 31.2477 0
1 183.773 67.3495 0
1 214.931 -0.690562 0
1 77.1291 114.678 0
1 5.10302 31.8976 0
1 180.036 32.8066 0
1 126.87 18.7044 0
1 146.008 6.11236 0
1 88.3699 125.461 0
1 84.7135 -3.61877 0
1 107.236 94.2483 0
1 -4.93898 -1.42626 0
1 51.1771 38.2242 0
1 125.307 94.4257 0
1 103.62 138.427 0
1 26.7269 51.5406 0
1 119.811 118.092 0
1 149.648 101.563 0
1 146.924 91.6237 0
1 123.923 12.5196 0
1 38.154 -12.9279 0
1 23.1433 8.66513 0
1 84.8315 50.6592 0
1 197.121 3.05486 0
1 -10.4814 77.6414 0
1 185.635 114.807 0
1 85.2993 46.923 0
1 67.2332 5.05402 0
1 146.731 113.657 0
1 168.177 4.48335 0
1 -0.258353 129.487 0
1 55.6549 70.5217 0
1 215.549 61.7859 0
1 -2.43595 67.3014 0
1 224.283 52.3012 0
1 35.0604 44.3076 0
1 49.3349 66.9136 0
1 75.5558 103.619 0
1 77.4411 128.509 0
1 32.0872 101.689 0
1 167.817 73.9261 0
1 204.57 21.9147 0
1 -22.0271 30.2599 0
1 207.125 58.523 0
1 112.046 81.6837 0
1 2.79031 10.6652 0
1 46.5858 84.1547 0
1 151.81 104.713 0
1 -22.9494 50.1604 0
1 105.866 -6.61887 0
1 15.7903 24.1934 0
1 113.033 137.414 0
1 -10.1522 49.6976 0
1 212.773 -3.56272 0
1 76.6616 69.3387 0
1 13.1157 104.495 0
1 148.097 95.7488 0
1 64.6509 103.254 0
1 8.33544 109.82 0
1 73.1292 103.333 0
1 165.889 66.1113 0
1 52.7158 60.0228 0
1 189.087 13.1044 0
1 119.309 73.5739 0
1 204.376 131.592 0
1 146.287 102.225 0
1 228.686 -4.57593 0
1 17.6147 121.029 0
1 33.3274 -4.37623 0
1 228.779 31.0835 0
1 216.938 71.5541 0
1 30.6896 -8.18046 0
1 81.9412 38.3455 0
1 19.11 116.783 0
1 46.2524 123.731 0
1 101.406 69.903 0
1 26.4766 33.0014 0
1 98.889 113.995 0
1 38.1647 14.7851 0
1 184.876 25.69 0
1 -8.19919 36.4135 0
1 -4.61331 67.3886 0
1 59.2355 76.0807 0
1 64.5609 -10.1242 0
1 8.05853 0.456165 0
1 159.352 91.6683 0
1 104.009 33.6809 0
1 119.639 92.844 0
1 116.844 92.7526 0
1 34.7687 69.5343 0
1 75.7758 33.563 0
1 81.9081 63.0177 0
1 175.641 35.8254 0
1 86.8975 43.0011 0
1 87.5823 90.888 0
1 121.81 -17.464 0
1 88.4018 -2.54791 0
1 57.1772 51.6787 0
1 -17.928 39.9671 0
1 151.764 0.0640921 0
1 127.365 55.3839 0
1 147.47 63.4655 0
1 236.127 58.3831 0
1 148.364 28.4027 0
1 148.311 93.4449 0
1 48.6134 30.114 0
1 229.377 12.7601 0
1 71.2252 -1.28064 0
1 -18.1103 51.5526 0
1 46.377 8.30403 0
1 158.927 99.7788 0
1 7.61655 14.1528 0
1 92.8945 2.49005 0
1 23.995 81.0503 0
1 96.4923 134.114 0
1 43.9131 81.0597 0
1 146.36 107.44 0
1 41.0399 110.681 0
1 174.047 137.015 0
1 10.8765 94.1017 0
1 68.2629 23.1532 0
1 32.2077 136.944 0
1 97.5132 137.446 0
1 116.453 52.8661 0
1 32.879 24.3977 0
1 227.995 6.96055 0
1 86.864 49.9704 0
1 68.9416 95.4058 0
1 146.646 31.8017 0
1 127.782 58.4591 0
1 115.192 101.948 0
1 162.683 95.3285 0
1 34.9588 46.9912 0
1 89.3109 95.0682 0
1 106.023 14.4873 0
1 -3.95456 29.8712 0
1 -22.9838 40.8372 0
1 145.863 56.9628 0
1 67.267 37.1742 0
1 83.745 16.9632 0
1 130.809 48.9806 0
1 145.019 131.874 0
1 107.949 30.4359 0
1 116.489 -10.7696 0
1 106.237 68.3637 0
1 231.554 -13.1122 0
1 -1.26801 -1.10698 0
1 0.274966 86.8204 0
1 61.3105 114.175 0
1 91.3715 26.6756 0
1 206.53 26.9894 0
1 170.892 114.978 0
1 5.43314 120.439 0
1 58.4128 -10.9728 0
1 -3.7952 48.0763 0
1 143.44 57.4718 0
1 37.3989 90.3551 0
1 237.877 70.8291 0
1 205.455 0.583123 0
1 5.87903 46.8815 0
1 99.3035 133.577 0
1 154.877 74.279 0
1 49.0222 55.1675 0
1 115.217 122.049 0
1 111.88 -14.1906 0
1 44.8991 64.7305 0
1 191.828 36.1903 0
1 104.999 48.0983 0
1 94.0728 76.7491 0
1 171.478 35.6766 0
1 241.075 52.0718 0
1 159.46 124.858 0
1 32.8028 50.8851 0
1 47.9079 10.8443 0
1 76.363 121.203 0
1 96.6201 28.948 0
1 160.825 -6.7239 0
1 193.818 3.61447 0
1 212.769 73.2463 0
1 59.2621 48.9077 0
1 244.665 89.2011 0
1 8.44341 125.478 0
1 100.99 21.9137 0
1 27.3375 94.2496 0
1 -27.7609 58.9362 0
1 76.7208 71.8887 0
1 167.238 -1.62131 0
1 146.891 47.3761 0
1 8.72603 72.261 0
1 8.92355 102.574 0
1 5.41327 109.553 0
1 223.277 98.8329 0
1 181.031 7.4323 0
1 -18.4845 75.4637 0
1 109.515 65.3692 0
1 185.625 103.146 0
1 53.4449 114.563 0
1 77.9556 3.67125 0
1 142.998 26.1088 0
1 72.2695 109.2 0
1 25.9069 70.508 0
1 185.388 2.50253 0
1 106.217 77.2188 0
1 -5.51981 33.7896 0
1 50.1811 117.827 0
1 232.405 114.819 0
1 105.951 109.367 0
1 0.958968 42.1122 0
1 141.856 76.8107 0
1 134.403 3.10967 0
1 31.6794 92.8867 0
1 62.875 61.719 0
1 104.675 20.7357 0
1 46.8108 98.173 0
1 101.428 -9.38113 0
1 233.03 -16.6043 0
1 40.0852 -11.0437 0
1 165.456 81.492 0
1 8.77238 -2.59233 0
1 100.259 14.3931 0
1 -19.6725 87.913 0
1 147.356 65.872 0
1 189.61 98.9446 0
1 118.125 8.66593 0
1 3.6598 82.3715 0
1 220.817 61.9197 0
1 -31.2432 63.894 0
1 10.002 67.693 0
1 50.7173 29.0974 0
1 215.02 -4.37367 0
1 -24.9081 61.1341 0
1 187.851 114.135 0
1 218.881 102.974 0
1 -2.31518 90.7235 0
1 150.663 107.739 0
1 9.9699 23.3109 0
1 240.219 61.6087 0
1 74.4301 41.6105 0
1 34.9926 11.256 0
1 74.7824 -2.52284 0
1 -7.4029 96.7548 0
1 45.8978 45.9548 0
1 57.789 38.0202 0
1 80.0068 122.554 0
1 43.3189 35.5514 0
1 41.3638 39.1833 0
1 43.2505 7.31993 0
1 89.8153 138.578 0
1 -31.4035 111.327 0
1 71.6528 73.8771 0
1 37.3861 82.0614 0
1 68.5314 112.686 0
1 -26.6632 44.5516 0
1 40.646 89.3388 0
1 208.75 77.7348 0
1 130.073 139.617 0
1 192.782 76.3512 0
1 124.8 117.12 0
1 115.894 28.2312 0
1 68.1685 129.538 0
1 216.21 56.8091 0
1 173.824 34.1188 0
1 70.3973 51.4798 0
1 91.119 56.2852 0
1 130.987 94.6897 0
1 105.653 41.4754 0
1 85.7058 122.567 0
1 134.047 -13.4092 0
1 242.168 60.6508 0
1 141.179 65.9977 0
1 -26.9055 23.6544 0
1 193.885 60.8382 0
1 220.679 99.5134 0
1 21.4554 71.0973 0
1 25.3437 138.353 0
1 178.83 107.183 0
1 217.043 31.0549 0
1 109.336 136.634 0
1 60.3682 -7.99962 0
1 143.868 17.6612 0
1 124.711 139.046 0
1 133.869 63.0479 0
1 211.26 5.54323 0
1 19.5712 40.1928 0
1 62.3639 91.6721 0
1 80.2002 45.2747 0
1 69.2628 121.689 0
1 72.1759 59.6257 0
1 63.4095 114.818 0
1 149.218 -1.51645 0
1 52.2766 84.8599 0
1 167.88 32.6258 0
1 21.6089 -8.64736 0
1 177.777 73.0113 0
1 80.2138 74.6104 0
1 102.105 119.588 0
1 215.004 11.3667 0
1 23.6442 70.5018 0
1 149.816 16.1478 0
1 -11.3406 46.7405 0
1 92.5538 51.5932 0
1 24.9831 120.173 0
1 189.28 68.6335 0
1 -9.6013 23.5562 0
1 164.912 -9.12028 0
1 233.807 -3.6621 0
1 81.9418 101.655 0
1 43.8689 135.071 0
1 61.2387 131.032 0
1 -8.82937 102.638 0
1 55.2647 -10.9091 0
1 22.5195 97.6293 0
1 15.8146 3.65195 0
1 57.2424 -12.891 0
1 49.6592 102.813 0
1 57.6133 -2.08904 0
1 233.094 54.9132 0
1 88.199 25.162 0
1 30.4221 107.475 0
1 35.979 8.86347 0
1 103.787 -6.90716 0
1 180.605 65.2842 0
1 1.3705 57.5642 0
1 149.916 90.2359 0
1 -10.6316 129.596 0
1 -14.7887 85.4478 0
1 80.8407 119.716 0
1 105.388 51.5725 0
1 47.7252 -8.56565 0
1 81.1914 3.43885 0
1 131.521 6.74734 0
1 54.2201 122.685 0
1 134.368 52.6659 0
1 92.7776 108.68 0
1 74.5057 106.055 0
1 72.7341 80.3033 0
1 155.4 57.7396 0
1 6.97002 -5.15324 0
1 -12.8671 67.8395 0
1 78.0293 85.5253 0
1 50.2345 31.9841 0
1 45.6203 29.024 0
1 70.7952 139.498 0
1 156.604 113.874 0
1 115.709 126.152 0
1 143.607 112.403 0
1 30.8489 83.4364 0
1 58.1569 72.6193 0
1 30.1287 71.9104 0
1 95.4933 23.684 0
1 227.389 -6.47912 0
1 17.7521 128.951 0
1 136.422 127.819 0
1 47.3577 121.606 0
1 2.02795 119.486 0
1 139.929 79.4962 0
1 232.367 5.61004 0
1 44.1872 54.0606 0
1 238.224 20.1626 0
1 197.196 139.723 0
1 73.4817 71.0048 0
1 128.245 44.0767 0
1 7.78556 98.0327 0
1 127.408 88.9118 0
1 167.636 46.6479 0
1 161.805 46.2039 0
1 16.7731 135.582 0
1 47.805 89.7947 0
1 52.7535 72.399 0
1 14.393 76.3064 0
1 102.504 136.435 0
1 134.334 138.813 0
1 57.6302 120.881 0
1 120.464 82.5363 0
1 20.0226 82.5486 0
1 82.091 59.2808 0
1 232.706 58.4211 0
1 126.959 40.6294 0
1 34.1115 76.6282 0
1 152.177 45.5412 0
1 93.4367 10.6937 0
1 28.9308 116.336 0
1 17.9739 -7.76151 0
1 26.1768 135.514 0
1 239.555 53.4641 0
1 103.512 86.1043 0
1 106.652 23.2895 0
1 45.0693 79.2672 0
1 130.136 120.743 0
1 94.8789 5.44067 0
1 21.7032 -16.3506 0
1 28.3021 9.5494 0
1 -24.045 20.1346 0
1 47.9125 -10.7177 0
1 152.182 78.6095 0
1 65.8227 11.6644 0
1 165.231 76.8367 0
1 123.998 86.9151 0
1 107.896 112.524 0
1 21.8368 73.4685 0
1 42.2518 29.3953 0
1 61.5485 15.0659 0
1 67.3046 119.927 0
1 43.2472 60.0679 0
1 89.5146 91.7653 0
1 204.671 18.4431 0
1 176.469 84.22 0
1 17.4533 71.1175 0
1 89.7078 2.99925 0
1 16.384 1.41537 0
1 236.822 121.614 0
1 108.969 -5.03286 0
1 113.208 132.764 0
1 70.1215 20.3769 0
1 170.363 69.9211 0
1 5.48748 19.7018 0
1 104.568 -9.94306 0
1 221.706 59.4608 0
1 72.7034 0.783364 0
1 105.506 134.072 0
1 124.87 48.8523 0
1 16.466 113.988 0
1 71.2723 113.291 0
1 14.1079 100.861 0
1 105.524 103.356 0
1 167.556 64.8419 0
1 170.109 81.3208 0
1 164.563 42.8292 0
1 -2.59142 133.436 0
1 -23.6389 46.5693 0
1 148.531 -13.8571 0
1 142.373 46.3411 0
1 -8.91848 68.5678 0
1 -15.9005 26.6696 0
1 16.9832 98.832 0
1 206.454 10.0636 0
1 185.108 97.9751 0
1 170.742 -12.906 0
1 22.0463 84.8677 0
1 -15.7648 32.7594 0
1 74.72 79.906 0
1 110.863 127.106 0
1 -13.1537 49.7558 0
1 66.6936 104.262 0
1 142.409 121.979 0
1 91.0397 103.62 0
1 208.2 68.0054 0
1 93.1905 58.3184 0
1 57.1523 57.7042 0
1 1.28977 48.1164 0
1 50.2941 60.4924 0
1 107.134 -4.06139 0
1 170.616 96.8844 0
1 237.025 37.7103 0
1 143.795 82.7908 0
1 93.407 99.5712 0
1 147.573 137.093 0
1 37.7599 37.8547 0
1 140.236 99.7032 0
1 96.6285 126.301 0
1 74.544 77.1586 0
1 225.346 -0.484984 0
1 228.612 50.7285 0
1 200.503 22.8083 0
1 215.085 90.0158 0
1 24.5499 84.9609 0
1 94.0273 40.6718 0
1 45.8926 136.314 0
1 44.5648 83.2668 0
1 120.219 77.7748 0
1 -18.8432 31.353 0
1 48.5046 46.468 0
1 231.797 13.9437 0
1 110.136 53.4277 0
1 152.884 72.6343 0
1 186.151 66.2808 0
1 58.3854 127.438 0
1 -2.52735 31.6491 0
1 69.9792 30.6338 0
1 67.1138 67.8681 0
1 53.114 -4.32794 0
1 171.793 112.153 0
1 123.628 19.4881 0
1 70.9046 28.0629 0
1 -1.609 16.3931 0
1 38.8362 109.943 0
1 -0.368913 60.1044 0
1 113.238 102.806 0
1 -11.4329 61.1384 0
1 0.553137 -17.9959 0